NH3 Optimization                                                        
FOpt      RHF                                                         6-31G               
Number of atoms                            I                4
Info1-9                                    I   N=           9
          12          11           0           0           0         110
           2           1           2
Charge                                     I                0
Multiplicity                               I                1
Number of electrons                        I               10
Number of alpha electrons                  I                5
Number of beta electrons                   I                5
Number of basis functions                  I               15
Number of independent functions            I               15
Number of point charges in /Mol/           I                0
Number of translation vectors              I                0
Atomic numbers                             I   N=           4
           7           1           1           1
Nuclear charges                            R   N=           4
  7.00000000E+00  1.00000000E+00  1.00000000E+00  1.00000000E+00
Current cartesian coordinates              R   N=          12
  0.00000000E+00  0.00000000E+00  1.12433513E-01  1.42857255E-11  1.83562239E+00
 -2.62344864E-01  1.58969562E+00 -9.17811193E-01 -2.62344864E-01 -1.58969562E+00
 -9.17811193E-01 -2.62344864E-01
Force Field                                I                0
Int Atom Types                             I   N=           4
           0           0           0           0
MM charges                                 R   N=           4
  0.00000000E+00  0.00000000E+00  0.00000000E+00  0.00000000E+00
Integer atomic weights                     I   N=           4
          14           1           1           1
Real atomic weights                        R   N=           4
  1.40030740E+01  1.00782504E+00  1.00782504E+00  1.00782504E+00
Atom fragment info                         I   N=           4
           0           0           0           0
Atom residue num                           I   N=           4
           0           0           0           0
Nuclear spins                              I   N=           4
           2           1           1           1
Nuclear ZEff                               R   N=           4
 -4.55000000E+00 -1.00000000E+00 -1.00000000E+00 -1.00000000E+00
Nuclear QMom                               R   N=           4
  2.04400000E+00  0.00000000E+00  0.00000000E+00  0.00000000E+00
Nuclear GFac                               R   N=           4
  4.03761000E-01  2.79284600E+00  2.79284600E+00  2.79284600E+00
MicOpt                                     I   N=           4
          -1          -1          -1          -1
Number of contracted shells                I                9
Number of primitive shells                 I               22
Pure/Cartesian d shells                    I                1
Pure/Cartesian f shells                    I                0
Highest angular momentum                   I                1
Largest degree of contraction              I                6
Shell types                                I   N=           9
           0          -1          -1           0           0           0
           0           0           0
Number of primitives per shell             I   N=           9
           6           3           1           3           1           3
           1           3           1
Shell to atom map                          I   N=           9
           1           1           1           2           2           3
           3           4           4
Primitive exponents                        R   N=          22
  4.17351146E+03  6.27457911E+02  1.42902093E+02  4.02343293E+01  1.28202129E+01
  4.39043701E+00  1.16263619E+01  2.71627981E+00  7.72218397E-01  2.12031498E-01
  1.87311370E+01  2.82539436E+00  6.40121692E-01  1.61277759E-01  1.87311370E+01
  2.82539436E+00  6.40121692E-01  1.61277759E-01  1.87311370E+01  2.82539436E+00
  6.40121692E-01  1.61277759E-01
Contraction coefficients                   R   N=          22
  1.83477216E-03  1.39946270E-02  6.85865518E-02  2.32240873E-01  4.69069948E-01
  3.60455199E-01 -1.14961182E-01 -1.69117479E-01  1.14585195E+00  1.00000000E+00
  3.34946043E-02  2.34726953E-01  8.13757326E-01  1.00000000E+00  3.34946043E-02
  2.34726953E-01  8.13757326E-01  1.00000000E+00  3.34946043E-02  2.34726953E-01
  8.13757326E-01  1.00000000E+00
P(S=P) Contraction coefficients            R   N=          22
  0.00000000E+00  0.00000000E+00  0.00000000E+00  0.00000000E+00  0.00000000E+00
  0.00000000E+00  6.75797439E-02  3.23907296E-01  7.40895140E-01  1.00000000E+00
  0.00000000E+00  0.00000000E+00  0.00000000E+00  0.00000000E+00  0.00000000E+00
  0.00000000E+00  0.00000000E+00  0.00000000E+00  0.00000000E+00  0.00000000E+00
  0.00000000E+00  0.00000000E+00
Coordinates of each shell                  R   N=          27
  0.00000000E+00  0.00000000E+00  1.12433513E-01  0.00000000E+00  0.00000000E+00
  1.12433513E-01  0.00000000E+00  0.00000000E+00  1.12433513E-01  0.00000000E+00
  1.83562239E+00 -2.62344864E-01  0.00000000E+00  1.83562239E+00 -2.62344864E-01
  1.58969562E+00 -9.17811193E-01 -2.62344864E-01  1.58969562E+00 -9.17811193E-01
 -2.62344864E-01 -1.58969562E+00 -9.17811193E-01 -2.62344864E-01 -1.58969562E+00
 -9.17811193E-01 -2.62344864E-01
Constraint Structure                       R   N=          12
  0.00000000E+00  0.00000000E+00  1.13383568E-01  0.00000000E+00  1.88972613E+00
 -2.64561659E-01  1.63655084E+00 -9.44863066E-01 -2.64561659E-01 -1.63655084E+00
 -9.44863066E-01 -2.64561659E-01
Num ILSW                                   I              100
ILSW                                       I   N=         100
           0           1           0           0           2           0
           0           0           0           0           0          -1
           0           0           0           0           0           0
           0           0           0           0           1           0
           1           0           0           0           0           0
           0           0      100000           0          -1           0
           0           0           0           0           0           0
           0           0           0           1           0           0
           0           0           1           0           0           0
           0           0           4          40           0           0
           0           0           0           0           0           0
           0           0           0           0           0           0
           0           0           0           0           0           0
           0           0           0           0           0           0
           0           0           0           0           0           0
           0           0           0           0           0           0
           0           0           0           0
Num RLSW                                   I               40
RLSW                                       R   N=          40
  1.00000000E+00  1.00000000E+00  1.00000000E+00  1.00000000E+00  1.00000000E+00
  0.00000000E+00  0.00000000E+00  1.00000000E+00  0.00000000E+00  0.00000000E+00
  0.00000000E+00  0.00000000E+00  1.00000000E+00  0.00000000E+00  0.00000000E+00
  0.00000000E+00  0.00000000E+00  1.00000000E+00  0.00000000E+00  0.00000000E+00
  0.00000000E+00  0.00000000E+00  1.00000000E+00  0.00000000E+00  0.00000000E+00
  0.00000000E+00  0.00000000E+00  1.00000000E+00  0.00000000E+00  0.00000000E+00
  0.00000000E+00  0.00000000E+00  1.00000000E+00  0.00000000E+00  0.00000000E+00
  0.00000000E+00  0.00000000E+00  0.00000000E+00  1.00000000E+00  1.00000000E+00
MxBond                                     I                3
NBond                                      I   N=           4
           3           1           1           1
IBond                                      I   N=          12
           2           3           4           1           0           0
           1           0           0           1           0           0
RBond                                      R   N=          12
  1.00000000E+00  1.00000000E+00  1.00000000E+00  1.00000000E+00  0.00000000E+00
  0.00000000E+00  1.00000000E+00  0.00000000E+00  0.00000000E+00  1.00000000E+00
  0.00000000E+00  0.00000000E+00
Virial Ratio                               R      1.998937341256037E+00
SCF Energy                                 R     -5.616552121588556E+01
Total Energy                               R     -5.616552121588556E+01
RMS Force                                  R      2.546335879851334E-05
RMS Density                                R      2.407873970387297E-09
External E-field                           R   N=          35
  0.00000000E+00  0.00000000E+00  0.00000000E+00  0.00000000E+00  0.00000000E+00
  0.00000000E+00  0.00000000E+00  0.00000000E+00  0.00000000E+00  0.00000000E+00
  0.00000000E+00  0.00000000E+00  0.00000000E+00  0.00000000E+00  0.00000000E+00
  0.00000000E+00  0.00000000E+00  0.00000000E+00  0.00000000E+00  0.00000000E+00
  0.00000000E+00  0.00000000E+00  0.00000000E+00  0.00000000E+00  0.00000000E+00
  0.00000000E+00  0.00000000E+00  0.00000000E+00  0.00000000E+00  0.00000000E+00
  0.00000000E+00  0.00000000E+00  0.00000000E+00  0.00000000E+00  0.00000000E+00
IOpCl                                      I                0
IROHF                                      I                0
Alpha Orbital Energies                     R   N=          15
 -1.55178935E+01 -1.13072011E+00 -6.41104515E-01 -6.41104515E-01 -3.91098328E-01
  2.28945378E-01  3.28141826E-01  3.28141826E-01  9.56195555E-01  9.56195555E-01
  9.73127503E-01  1.15797888E+00  1.28249726E+00  1.28249726E+00  1.45393518E+00
Alpha MO coefficients                      R   N=         225
  9.95945734E-01  2.32772147E-02  0.00000000E+00  9.87476224E-17 -1.30563874E-03
 -1.05258295E-02  0.00000000E+00 -8.68875454E-17  1.10868151E-03 -1.89245677E-04
  2.26385690E-03 -1.89245677E-04  2.26385690E-03 -1.89245677E-04  2.26385690E-03
 -2.02785722E-01  4.20075864E-01  0.00000000E+00  3.52709660E-16 -6.07097630E-02
  4.50888868E-01  0.00000000E+00 -1.10734960E-15 -3.23932870E-02  1.41804700E-01
  6.44738464E-03  1.41804700E-01  6.44738464E-03  1.41804700E-01  6.44738464E-03
  0.00000000E+00  0.00000000E+00  4.72551019E-01  0.00000000E+00  0.00000000E+00
  0.00000000E+00  2.60341892E-01  0.00000000E+00  0.00000000E+00  0.00000000E+00
  0.00000000E+00  2.56065002E-01  1.31663470E-01 -2.56065002E-01 -1.31663470E-01
  1.86977819E-16 -8.98139404E-17  0.00000000E+00  4.72551019E-01 -3.94476622E-16
 -1.77515254E-15  0.00000000E+00  2.60341892E-01  3.52848989E-16  2.95678396E-01
  1.52031880E-01 -1.47839198E-01 -7.60159399E-02 -1.47839198E-01 -7.60159399E-02
 -3.57988739E-02  8.94557954E-02  0.00000000E+00 -1.16071888E-16  5.80257182E-01
  1.22016574E-01  0.00000000E+00 -2.27374332E-15  5.40658477E-01 -2.89119726E-02
 -1.38816661E-02 -2.89119726E-02 -1.38816661E-02 -2.89119726E-02 -1.38816661E-02
 -1.21091096E-01  1.26699158E-01  0.00000000E+00 -6.70736053E-15 -8.48152199E-02
  1.89677567E+00  0.00000000E+00 -3.00995924E-14 -2.49592116E-01 -3.97170567E-02
 -9.57150282E-01 -3.97170567E-02 -9.57150282E-01 -3.97170567E-02 -9.57150282E-01
  2.99512745E-15 -1.39107706E-14  0.00000000E+00 -3.17762562E-01  1.65361382E-15
 -2.41893421E-14  0.00000000E+00 -1.19709859E+00  4.54646313E-15  3.18593008E-02
  1.85041023E+00 -1.59296504E-02 -9.25205117E-01 -1.59296504E-02 -9.25205117E-01
  0.00000000E+00  0.00000000E+00 -3.17762562E-01  0.00000000E+00  0.00000000E+00
  0.00000000E+00 -1.19709859E+00  0.00000000E+00  0.00000000E+00  0.00000000E+00
  0.00000000E+00  2.75909638E-02  1.60250227E+00 -2.75909638E-02 -1.60250227E+00
  0.00000000E+00  0.00000000E+00 -4.83240299E-01  0.00000000E+00  0.00000000E+00
  0.00000000E+00  1.62485504E+00  0.00000000E+00  0.00000000E+00  0.00000000E+00
  0.00000000E+00 -7.06302271E-01 -2.70969255E-01  7.06302271E-01  2.70969255E-01
 -5.23784661E-16  1.12025760E-14  0.00000000E+00 -4.83240299E-01 -1.04556637E-14
 -1.77997405E-14  0.00000000E+00  1.62485504E+00  1.04749296E-14 -8.15567613E-01
 -3.12888344E-01  4.07783807E-01  1.56444172E-01  4.07783807E-01  1.56444172E-01
  2.46305818E-02 -4.13968274E-02  0.00000000E+00  3.03667044E-15 -9.89153987E-01
 -2.69959131E-01  0.00000000E+00 -1.32137333E-14  1.07902903E+00  1.14782074E-01
  7.45021759E-02  1.14782074E-01  7.45021759E-02  1.14782074E-01  7.45021759E-02
  8.73511667E-02 -1.26248199E-01  0.00000000E+00 -8.20272406E-15  2.20803855E-01
 -4.48960683E-01  0.00000000E+00  1.17859232E-14  4.49969135E-02  8.15038771E-01
 -2.93067495E-01  8.15038771E-01 -2.93067495E-01  8.15038771E-01 -2.93067495E-01
  8.30352193E-16 -2.53266160E-14  0.00000000E+00  9.96193925E-01 -2.80730247E-16
  4.41970421E-14  0.00000000E+00 -1.05428899E+00 -2.42586734E-15 -7.78496229E-01
  1.30555930E+00  3.89248114E-01 -6.52779651E-01  3.89248114E-01 -6.52779651E-01
  0.00000000E+00  0.00000000E+00  9.96193925E-01  0.00000000E+00  0.00000000E+00
  0.00000000E+00 -1.05428899E+00  0.00000000E+00  0.00000000E+00  0.00000000E+00
  0.00000000E+00 -6.74197511E-01  1.13064752E+00  6.74197511E-01 -1.13064752E+00
  3.44014009E-02 -1.92164672E+00  0.00000000E+00 -1.35544531E-14  6.21167102E-02
  3.53454946E+00  0.00000000E+00  3.09950206E-14 -3.14792564E-01 -1.06699409E-01
 -7.94443464E-01 -1.06699409E-01 -7.94443464E-01 -1.06699409E-01 -7.94443464E-01
Total SCF Density                          R   N=         120
  2.06862303E+00 -1.30409923E-01  3.70015798E-01 -1.64346022E-32 -1.64346022E-32
  4.46608931E-01  1.64346022E-32  1.02716264E-32  4.62592927E-18  4.46608931E-01
 -1.95236517E-02  5.27485400E-02  3.28692044E-32 -3.28692044E-32  6.80771553E-01
 -2.12570071E-01  4.00155216E-01  9.86076132E-32 -9.86076132E-32  8.68827598E-02
  4.36599217E-01 -4.93038066E-32  9.86076132E-32  2.46049652E-01 -2.31296463E-18
  1.97215226E-31  1.97215226E-31  1.35555801E-01  1.64346022E-32 -9.86076132E-32
  0.00000000E+00  2.46049652E-01 -1.64346022E-31 -3.28692044E-32 -1.15648232E-18
  1.35555801E-01 -2.33637638E-02  6.95664063E-02 -1.64346022E-32  8.21730110E-33
  6.31372211E-01  1.02703705E-01  1.31476818E-31 -6.57384088E-32  5.86724287E-01
 -5.58188618E-02  1.13955966E-01  3.00685403E-17  2.79446255E-01 -5.07701247E-02
  1.20824826E-01  2.08166817E-17  1.53954946E-01 -4.04504665E-02  2.16740449E-01
  2.88837817E-03  3.03858293E-03  1.61907524E-17  1.43685640E-01 -1.68986229E-02
  2.37886329E-03  1.04083409E-17  7.91605344E-02 -1.54231651E-02  9.25354594E-02
  4.67061739E-02 -5.58188618E-02  1.13955966E-01  2.42007555E-01 -1.39723127E-01
 -5.07701247E-02  1.20824826E-01  1.33328894E-01 -7.69774729E-02 -4.04504665E-02
 -4.55366919E-02 -4.23221676E-02  2.16740449E-01  2.88837817E-03  3.03858293E-03
  1.24435414E-01 -7.18428198E-02 -1.68986229E-02  2.37886329E-03  6.85550338E-02
 -3.95802672E-02 -1.54231651E-02 -4.23221676E-02 -2.26349036E-02  9.25354594E-02
  4.67061739E-02 -5.58188618E-02  1.13955966E-01 -2.42007555E-01 -1.39723127E-01
 -5.07701247E-02  1.20824826E-01 -1.33328894E-01 -7.69774729E-02 -4.04504665E-02
 -4.55366919E-02 -4.23221676E-02 -4.55366919E-02 -4.23221676E-02  2.16740449E-01
  2.88837817E-03  3.03858293E-03 -1.24435414E-01 -7.18428198E-02 -1.68986229E-02
  2.37886329E-03 -6.85550338E-02 -3.95802672E-02 -1.54231651E-02 -4.23221676E-02
 -2.26349036E-02 -4.23221676E-02 -2.26349036E-02  9.25354594E-02  4.67061739E-02
QEq coupling tensors                       R   N=          24
 -6.37282819E-01  2.59237076E-14 -6.37282819E-01  2.87270208E-15 -2.77625145E-14
  1.27456564E+00  2.06705216E-01 -2.28983499E-16 -4.71691254E-01  1.95834017E-18
  1.41077705E-01  2.64986038E-01 -3.02092137E-01  2.93754289E-01  3.71060987E-02
  1.22176876E-01 -7.05388523E-02  2.64986038E-01 -3.02092137E-01 -2.93754289E-01
  3.71060987E-02 -1.22176876E-01 -7.05388523E-02  2.64986038E-01
Mulliken Charges                           R   N=           4
 -9.81993854E-01  3.27331285E-01  3.27331285E-01  3.27331285E-01
Optimization MaxStp                        I              100
Optimization Job offset                    I                0
Optimization Num results per geometry      I                2
Optimization Num geometry variables        I               12
Opt point       1 Results for each geome   R   N=          10
 -5.61632845E+01  0.00000000E+00 -5.61654372E+01  0.00000000E+00 -5.61655083E+01
  0.00000000E+00 -5.61655177E+01  0.00000000E+00 -5.61655212E+01  0.00000000E+00
Opt point       1 Geometries               R   N=          60
  0.00000000E+00  0.00000000E+00  1.13383568E-01  0.00000000E+00  1.88972613E+00
 -2.64561659E-01  1.63655084E+00 -9.44863066E-01 -2.64561659E-01 -1.63655084E+00
 -9.44863066E-01 -2.64561659E-01  0.00000000E+00  0.00000000E+00  1.24279839E-01
  0.00000000E+00  1.82132311E+00 -2.89986290E-01  1.57731208E+00 -9.10661555E-01
 -2.89986290E-01 -1.57731208E+00 -9.10661555E-01 -2.89986290E-01  0.00000000E+00
  0.00000000E+00  1.19921845E-01  0.00000000E+00  1.83191968E+00 -2.79817638E-01
  1.58648898E+00 -9.15959838E-01 -2.79817638E-01 -1.58648898E+00 -9.15959838E-01
 -2.79817638E-01  0.00000000E+00  0.00000000E+00  1.16153913E-01  0.00000000E+00
  1.83414240E+00 -2.71025798E-01  1.58841391E+00 -9.17071200E-01 -2.71025798E-01
 -1.58841391E+00 -9.17071200E-01 -2.71025798E-01  0.00000000E+00  0.00000000E+00
  1.12433513E-01  0.00000000E+00  1.83562239E+00 -2.62344864E-01  1.58969562E+00
 -9.17811193E-01 -2.62344864E-01 -1.58969562E+00 -9.17811193E-01 -2.62344864E-01
Opt point       1 Gradient at each geome   R   N=          60
 -2.60902411E-15  2.55351296E-15  1.14529577E-02 -1.92380833E-15  2.64976478E-02
 -3.81765258E-03  2.29476361E-02 -1.32488239E-02 -3.81765258E-03 -2.29476361E-02
 -1.32488239E-02 -3.81765258E-03  2.22044605E-16  2.60902411E-15 -4.58315315E-04
 -1.95243127E-15 -4.29155144E-03  1.52771772E-04 -3.71659257E-03  2.14577572E-03
  1.52771772E-04  3.71659257E-03  2.14577572E-03  1.52771772E-04  1.88737914E-15
  2.10942375E-15  1.05507578E-03 -1.81105131E-15  9.43364016E-05 -3.51691926E-04
  8.16977203E-05 -4.71682008E-05 -3.51691926E-04 -8.16977203E-05 -4.71682008E-05
 -3.51691926E-04  2.94209102E-15  1.83186799E-15  6.12945138E-04 -1.64798730E-15
  2.36834983E-04 -2.04315046E-04  2.05105112E-04 -1.18417492E-04 -2.04315046E-04
 -2.05105112E-04 -1.18417492E-04 -2.04315046E-04  5.44009282E-15  6.93889390E-15
  6.23772253E-05 -1.83447008E-15  2.93978498E-05 -2.07924084E-05  2.54592847E-05
 -1.46989249E-05 -2.07924084E-05 -2.54592847E-05 -1.46989249E-05 -2.07924084E-05
Optimization Number of geometries          I   N=           1
           5
ONIOM Charges                              I   N=          16
           0           0           0           0           0           0
           0           0           0           0           0           0
           0           0           0           0
ONIOM Multiplicities                       I   N=          16
           1           0           0           0           0           0
           0           0           0           0           0           0
           0           0           0           0
Atom Layers                                I   N=           4
           1           1           1           1
Atom Modifiers                             I   N=           4
           0           0           0           0
Force Field                                I                0
Int Atom Modified Types                    I   N=           4
           0           0           0           0
Link Atoms                                 I   N=           4
           0           0           0           0
Atom Modified MM Charges                   R   N=           4
  0.00000000E+00  0.00000000E+00  0.00000000E+00  0.00000000E+00
Link Distances                             R   N=          16
  0.00000000E+00  0.00000000E+00  0.00000000E+00  0.00000000E+00  0.00000000E+00
  0.00000000E+00  0.00000000E+00  0.00000000E+00  0.00000000E+00  0.00000000E+00
  0.00000000E+00  0.00000000E+00  0.00000000E+00  0.00000000E+00  0.00000000E+00
  0.00000000E+00
Cartesian Gradient                         R   N=          12
  5.44009282E-15  6.93889390E-15  6.23772253E-05 -1.83447824E-15  2.93978498E-05
 -2.07924084E-05  2.54592847E-05 -1.46989249E-05 -2.07924084E-05 -2.54592847E-05
 -1.46989249E-05 -2.07924084E-05
Dipole Moment                              R   N=           3
 -2.82868347E-16 -2.81079413E-16 -5.45567028E-01
Quadrupole Moment                          R   N=           6
  8.92569102E-01  8.92569102E-01 -1.78513820E+00 -1.12906104E-16  1.26174028E-16
  7.70461169E-17
