 Entering Link 1 = D:\G09W\l1.exe PID=      5700.
  
 Copyright (c) 1988,1990,1992,1993,1995,1998,2003,2009,2010,
            Gaussian, Inc.  All Rights Reserved.
  
 This is part of the Gaussian(R) 09 program.  It is based on
 the Gaussian(R) 03 system (copyright 2003, Gaussian, Inc.),
 the Gaussian(R) 98 system (copyright 1998, Gaussian, Inc.),
 the Gaussian(R) 94 system (copyright 1995, Gaussian, Inc.),
 the Gaussian 92(TM) system (copyright 1992, Gaussian, Inc.),
 the Gaussian 90(TM) system (copyright 1990, Gaussian, Inc.),
 the Gaussian 88(TM) system (copyright 1988, Gaussian, Inc.),
 the Gaussian 86(TM) system (copyright 1986, Carnegie Mellon
 University), and the Gaussian 82(TM) system (copyright 1983,
 Carnegie Mellon University). Gaussian is a federally registered
 trademark of Gaussian, Inc.
  
 This software contains proprietary and confidential information,
 including trade secrets, belonging to Gaussian, Inc.
  
 This software is provided under written license and may be
 used, copied, transmitted, or stored only in accord with that
 written license.
  
 The following legend is applicable only to US Government
 contracts under FAR:
  
                    RESTRICTED RIGHTS LEGEND
  
 Use, reproduction and disclosure by the US Government is
 subject to restrictions as set forth in subparagraphs (a)
 and (c) of the Commercial Computer Software - Restricted
 Rights clause in FAR 52.227-19.
  
 Gaussian, Inc.
 340 Quinnipiac St., Bldg. 40, Wallingford CT 06492
  
  
 ---------------------------------------------------------------
 Warning -- This program may not be used in any manner that
 competes with the business of Gaussian, Inc. or will provide
 assistance to any competitor of Gaussian, Inc.  The licensee
 of this program is prohibited from giving any competitor of
 Gaussian, Inc. access to this program.  By using this program,
 the user acknowledges that Gaussian, Inc. is engaged in the
 business of creating and licensing software in the field of
 computational chemistry and represents and warrants to the
 licensee that it is not a competitor of Gaussian, Inc. and that
 it will not use this program in any manner prohibited above.
 ---------------------------------------------------------------
  

 Cite this work as:
 Gaussian 09, Revision B.01,
 M. J. Frisch, G. W. Trucks, H. B. Schlegel, G. E. Scuseria, 
 M. A. Robb, J. R. Cheeseman, G. Scalmani, V. Barone, B. Mennucci, 
 G. A. Petersson, H. Nakatsuji, M. Caricato, X. Li, H. P. Hratchian, 
 A. F. Izmaylov, J. Bloino, G. Zheng, J. L. Sonnenberg, M. Hada, 
 M. Ehara, K. Toyota, R. Fukuda, J. Hasegawa, M. Ishida, T. Nakajima, 
 Y. Honda, O. Kitao, H. Nakai, T. Vreven, J. A. Montgomery, Jr., 
 J. E. Peralta, F. Ogliaro, M. Bearpark, J. J. Heyd, E. Brothers, 
 K. N. Kudin, V. N. Staroverov, T. Keith, R. Kobayashi, J. Normand, 
 K. Raghavachari, A. Rendell, J. C. Burant, S. S. Iyengar, J. Tomasi, 
 M. Cossi, N. Rega, J. M. Millam, M. Klene, J. E. Knox, J. B. Cross, 
 V. Bakken, C. Adamo, J. Jaramillo, R. Gomperts, R. E. Stratmann, 
 O. Yazyev, A. J. Austin, R. Cammi, C. Pomelli, J. W. Ochterski, 
 R. L. Martin, K. Morokuma, V. G. Zakrzewski, G. A. Voth, 
 P. Salvador, J. J. Dannenberg, S. Dapprich, A. D. Daniels, 
 O. Farkas, J. B. Foresman, J. V. Ortiz, J. Cioslowski, 
 and D. J. Fox, Gaussian, Inc., Wallingford CT, 2010.
 
 ******************************************
 Gaussian 09:  IA32W-G09RevB.01 12-Aug-2010
                27-Mar-2020 
 ******************************************
 %chk=NH3-opt
 ----------------
 #p RHF/6-31G opt
 ----------------
 1/18=20,19=15,38=1/1,3;
 2/9=110,12=2,17=6,18=5,40=1/2;
 3/5=1,6=6,11=1,16=1,25=1,30=1,71=1,116=1/1,2,3;
 4//1;
 5/5=2,38=5/2;
 6/7=2,8=2,9=2,10=2,28=1/1;
 7//1,2,3,16;
 1/18=20,19=15/3(2);
 2/9=110/2;
 99//99;
 2/9=110/2;
 3/5=1,6=6,11=1,16=1,25=1,30=1,71=1,116=1/1,2,3;
 4/5=5,16=3/1;
 5/5=2,38=5/2;
 7//1,2,3,16;
 1/18=20,19=15/3(-5);
 2/9=110/2;
 6/7=2,8=2,9=2,10=2,19=2,28=1/1;
 99/9=1/99;
 Leave Link    1 at Fri Mar 27 20:13:23 2020, MaxMem=          0 cpu:       0.0
 (Enter D:\G09W\l101.exe)
 ----------------
 NH3 Optimization
 ----------------
 Symbolic Z-matrix:
 Charge =  0 Multiplicity = 1
 N                     0.        0.        0. 
 H                     0.        1.       -0.2 
 H                     0.86603  -0.5      -0.2 
 H                    -0.86603  -0.5      -0.2 
 
 NAtoms=      4 NQM=      4 NQMF=      0 NMic=      0 NMicF=      0 NTot=      4.
                    Isotopes and Nuclear Properties:
 (Nuclear quadrupole moments (NQMom) in fm**2, nuclear magnetic moments (NMagM)
  in nuclear magnetons)

  Atom         1           2           3           4
 IAtWgt=          14           1           1           1
 AtmWgt=  14.0030740   1.0078250   1.0078250   1.0078250
 NucSpn=           2           1           1           1
 AtZEff=   0.0000000   0.0000000   0.0000000   0.0000000
 NQMom=    2.0440000   0.0000000   0.0000000   0.0000000
 NMagM=    0.4037610   2.7928460   2.7928460   2.7928460
 Leave Link  101 at Fri Mar 27 20:13:23 2020, MaxMem=   33554432 cpu:       0.0
 (Enter D:\G09W\l103.exe)

 GradGradGradGradGradGradGradGradGradGradGradGradGradGradGradGradGradGrad
 Berny optimization.
 Initialization pass.
                           ----------------------------
                           !    Initial Parameters    !
                           ! (Angstroms and Degrees)  !
 --------------------------                            --------------------------
 ! Name  Definition              Value          Derivative Info.                !
 --------------------------------------------------------------------------------
 ! R1    R(1,2)                  1.0198         estimate D2E/DX2                !
 ! R2    R(1,3)                  1.0198         estimate D2E/DX2                !
 ! R3    R(1,4)                  1.0198         estimate D2E/DX2                !
 ! A1    A(2,1,3)              116.2512         estimate D2E/DX2                !
 ! A2    A(2,1,4)              116.2512         estimate D2E/DX2                !
 ! A3    A(3,1,4)              116.2512         estimate D2E/DX2                !
 ! D1    D(2,1,4,3)            142.4765         estimate D2E/DX2                !
 --------------------------------------------------------------------------------
 Trust Radius=3.00D-01 FncErr=1.00D-07 GrdErr=1.00D-07
 Number of steps in this run=     20 maximum allowed number of steps=    100.
 GradGradGradGradGradGradGradGradGradGradGradGradGradGradGradGradGradGrad

 Leave Link  103 at Fri Mar 27 20:13:23 2020, MaxMem=   33554432 cpu:       0.0
 (Enter D:\G09W\l202.exe)
                          Input orientation:                          
 ---------------------------------------------------------------------
 Center     Atomic      Atomic             Coordinates (Angstroms)
 Number     Number       Type             X           Y           Z
 ---------------------------------------------------------------------
      1          7           0        0.000000    0.000000    0.000000
      2          1           0        0.000000    1.000000   -0.200000
      3          1           0        0.866025   -0.500000   -0.200000
      4          1           0       -0.866025   -0.500000   -0.200000
 ---------------------------------------------------------------------
                    Distance matrix (angstroms):
                    1          2          3          4
     1  N    0.000000
     2  H    1.019804   0.000000
     3  H    1.019804   1.732051   0.000000
     4  H    1.019804   1.732051   1.732051   0.000000
 Stoichiometry    H3N
 Framework group  C3V[C3(N),3SGV(H)]
 Deg. of freedom     2
 Full point group                 C3V     NOp   6
 Largest Abelian subgroup         CS      NOp   2
 Largest concise Abelian subgroup CS      NOp   2
                         Standard orientation:                         
 ---------------------------------------------------------------------
 Center     Atomic      Atomic             Coordinates (Angstroms)
 Number     Number       Type             X           Y           Z
 ---------------------------------------------------------------------
      1          7           0        0.000000    0.000000    0.060000
      2          1           0        0.000000    1.000000   -0.140000
      3          1           0        0.866025   -0.500000   -0.140000
      4          1           0       -0.866025   -0.500000   -0.140000
 ---------------------------------------------------------------------
 Rotational constants (GHZ):    313.6660359    313.6660359    167.1517001
 Leave Link  202 at Fri Mar 27 20:13:23 2020, MaxMem=   33554432 cpu:       0.0
 (Enter D:\G09W\l301.exe)
 Standard basis: 6-31G (6D, 7F)
 Ernie: Thresh=  0.10000D-02 Tol=  0.10000D-05 Strict=F.
 There are    11 symmetry adapted basis functions of A'  symmetry.
 There are     4 symmetry adapted basis functions of A"  symmetry.
 Integral buffers will be    262144 words long.
 Raffenetti 1 integral format.
 Two-electron integral symmetry is turned on.
    15 basis functions,    34 primitive gaussians,    15 cartesian basis functions
     5 alpha electrons        5 beta electrons
       nuclear repulsion energy        11.8134816514 Hartrees.
 IExCor=    0 DFT=F Ex=HF Corr=None ExCW=0 ScaHFX=  1.000000
 ScaDFX=  1.000000  1.000000  1.000000  1.000000 ScalE2=  1.000000  1.000000
 IRadAn=      0 IRanWt=     -1 IRanGd=            0 ICorTp=0
 NAtoms=    4 NActive=    4 NUniq=    2 SFac= 4.00D+00 NAtFMM=   50 NAOKFM=F Big=F
 Leave Link  301 at Fri Mar 27 20:13:23 2020, MaxMem=   33554432 cpu:       0.0
 (Enter D:\G09W\l302.exe)
 NPDir=0 NMtPBC=     1 NCelOv=     1 NCel=       1 NClECP=     1 NCelD=      1
         NCelK=      1 NCelE2=     1 NClLst=     1 CellRange=     0.0.
 One-electron integrals computed using PRISM.
 One-electron integral symmetry used in STVInt
 NBasis=    15 RedAO= T  NBF=    11     4
 NBsUse=    15 1.00D-06 NBFU=    11     4
 Leave Link  302 at Fri Mar 27 20:13:23 2020, MaxMem=   33554432 cpu:       0.0
 (Enter D:\G09W\l303.exe)
 DipDrv:  MaxL=1.
 Leave Link  303 at Fri Mar 27 20:13:23 2020, MaxMem=   33554432 cpu:       0.0
 (Enter D:\G09W\l401.exe)
 Harris functional with IExCor=  205 diagonalized for initial guess.
 ExpMin= 1.61D-01 ExpMax= 4.17D+03 ExpMxC= 6.27D+02 IAcc=1 IRadAn=         1 AccDes= 0.00D+00
 HarFok:  IExCor=  205 AccDes= 0.00D+00 IRadAn=         1 IDoV= 1
 ScaDFX=  1.000000  1.000000  1.000000  1.000000
 FoFCou: FMM=F IPFlag=           0 FMFlag=      100000 FMFlg1=           0
         NFxFlg=           0 DoJE=T BraDBF=F KetDBF=T FulRan=T
         Omega=  0.000000  0.000000  1.000000  0.000000  0.000000 ICntrl=     500 IOpCl=  0
         NMat0=    1 NMatS0=    1 NMatT0=    0 NMatD0=    1 NMtDS0=    0 NMtDT0=    0
         I1Cent=           4 NGrid=           0.
 Petite list used in FoFCou.
 Harris En= -56.3004926077350    
 Initial guess orbital symmetries:
       Occupied  (A1) (A1) (E) (E) (A1)
       Virtual   (A1) (E) (E) (A1) (E) (E) (A1) (E) (E) (A1)
 The electronic state of the initial guess is 1-A1.
 Leave Link  401 at Fri Mar 27 20:13:23 2020, MaxMem=   33554432 cpu:       0.0
 (Enter D:\G09W\l502.exe)
 Closed shell SCF:
 Requested convergence on RMS density matrix=1.00D-08 within 128 cycles.
 Requested convergence on MAX density matrix=1.00D-06.
 Requested convergence on             energy=1.00D-06.
 No special actions if energy rises.
 Using DIIS extrapolation, IDIIS=  1040.
 Integral symmetry usage will be decided dynamically.
 Keep R1 ints in memory in canonical form, NReq=827020.
 IEnd=       19746 IEndB=       19746 NGot=    33554432 MDV=    33544501
 LenX=    33544501 LenY=    33543619
 Symmetry not used in FoFDir.
 MinBra= 0 MaxBra= 1 Meth= 1.
 IRaf=       0 NMat=   1 IRICut=       1 DoRegI=T DoRafI=F ISym2E= 0 JSym2E=0.

 Cycle   1  Pass 1  IDiag  1:
 E= -56.0639867624595    
 DIIS: error= 8.86D-02 at cycle   1 NSaved=   1.
 NSaved= 1 IEnMin= 1 EnMin= -56.0639867624595     IErMin= 1 ErrMin= 8.86D-02
 ErrMax= 8.86D-02 EMaxC= 1.00D-01 BMatC= 1.19D-01 BMatP= 1.19D-01
 IDIUse=3 WtCom= 1.14D-01 WtEn= 8.86D-01
 Coeff-Com:  0.100D+01
 Coeff-En:   0.100D+01
 Coeff:      0.100D+01
 Gap=     0.502 Goal=   None    Shift=    0.000
 GapD=    0.502 DampG=2.000 DampE=0.500 DampFc=1.0000 IDamp=-1.
 RMSDP=2.13D-02 MaxDP=1.46D-01              OVMax= 1.24D-01

 Cycle   2  Pass 1  IDiag  1:
 E= -56.1356321441740     Delta-E=       -0.071645381715 Rises=F Damp=F
 DIIS: error= 4.17D-02 at cycle   2 NSaved=   2.
 NSaved= 2 IEnMin= 2 EnMin= -56.1356321441740     IErMin= 2 ErrMin= 4.17D-02
 ErrMax= 4.17D-02 EMaxC= 1.00D-01 BMatC= 3.30D-02 BMatP= 1.19D-01
 IDIUse=3 WtCom= 5.83D-01 WtEn= 4.17D-01
 Coeff-Com:  0.335D+00 0.665D+00
 Coeff-En:   0.426D-01 0.957D+00
 Coeff:      0.213D+00 0.787D+00
 Gap=     0.629 Goal=   None    Shift=    0.000
 RMSDP=9.16D-03 MaxDP=6.31D-02 DE=-7.16D-02 OVMax= 4.01D-02

 Cycle   3  Pass 1  IDiag  1:
 E= -56.1620423101343     Delta-E=       -0.026410165960 Rises=F Damp=F
 DIIS: error= 1.02D-02 at cycle   3 NSaved=   3.
 NSaved= 3 IEnMin= 3 EnMin= -56.1620423101343     IErMin= 3 ErrMin= 1.02D-02
 ErrMax= 1.02D-02 EMaxC= 1.00D-01 BMatC= 1.41D-03 BMatP= 3.30D-02
 IDIUse=3 WtCom= 8.98D-01 WtEn= 1.02D-01
 Coeff-Com: -0.296D-01 0.133D+00 0.897D+00
 Coeff-En:   0.000D+00 0.000D+00 0.100D+01
 Coeff:     -0.265D-01 0.119D+00 0.907D+00
 Gap=     0.608 Goal=   None    Shift=    0.000
 RMSDP=1.62D-03 MaxDP=9.95D-03 DE=-2.64D-02 OVMax= 9.20D-03

 Cycle   4  Pass 1  IDiag  1:
 E= -56.1632762225126     Delta-E=       -0.001233912378 Rises=F Damp=F
 DIIS: error= 7.94D-04 at cycle   4 NSaved=   4.
 NSaved= 4 IEnMin= 4 EnMin= -56.1632762225126     IErMin= 4 ErrMin= 7.94D-04
 ErrMax= 7.94D-04 EMaxC= 1.00D-01 BMatC= 6.73D-06 BMatP= 1.41D-03
 IDIUse=3 WtCom= 9.92D-01 WtEn= 7.94D-03
 Coeff-Com:  0.858D-02-0.633D-01-0.301D+00 0.136D+01
 Coeff-En:   0.000D+00 0.000D+00 0.000D+00 0.100D+01
 Coeff:      0.851D-02-0.628D-01-0.299D+00 0.135D+01
 Gap=     0.610 Goal=   None    Shift=    0.000
 RMSDP=1.81D-04 MaxDP=1.52D-03 DE=-1.23D-03 OVMax= 7.10D-04

 Cycle   5  Pass 1  IDiag  1:
 E= -56.1632844101708     Delta-E=       -0.000008187658 Rises=F Damp=F
 DIIS: error= 8.04D-05 at cycle   5 NSaved=   5.
 NSaved= 5 IEnMin= 5 EnMin= -56.1632844101708     IErMin= 5 ErrMin= 8.04D-05
 ErrMax= 8.04D-05 EMaxC= 1.00D-01 BMatC= 4.39D-08 BMatP= 6.73D-06
 IDIUse=1 WtCom= 1.00D+00 WtEn= 0.00D+00
 Coeff-Com: -0.206D-02 0.176D-01 0.785D-01-0.460D+00 0.137D+01
 Coeff:     -0.206D-02 0.176D-01 0.785D-01-0.460D+00 0.137D+01
 Gap=     0.610 Goal=   None    Shift=    0.000
 RMSDP=3.37D-05 MaxDP=2.43D-04 DE=-8.19D-06 OVMax= 1.12D-04

 Cycle   6  Pass 1  IDiag  1:
 E= -56.1632845179049     Delta-E=       -0.000000107734 Rises=F Damp=F
 DIIS: error= 5.96D-06 at cycle   6 NSaved=   6.
 NSaved= 6 IEnMin= 6 EnMin= -56.1632845179049     IErMin= 6 ErrMin= 5.96D-06
 ErrMax= 5.96D-06 EMaxC= 1.00D-01 BMatC= 5.32D-10 BMatP= 4.39D-08
 IDIUse=1 WtCom= 1.00D+00 WtEn= 0.00D+00
 Coeff-Com:  0.284D-03-0.263D-02-0.114D-01 0.816D-01-0.317D+00 0.125D+01
 Coeff:      0.284D-03-0.263D-02-0.114D-01 0.816D-01-0.317D+00 0.125D+01
 Gap=     0.610 Goal=   None    Shift=    0.000
 RMSDP=2.16D-06 MaxDP=1.07D-05 DE=-1.08D-07 OVMax= 1.40D-05

 Cycle   7  Pass 1  IDiag  1:
 E= -56.1632845187123     Delta-E=       -0.000000000807 Rises=F Damp=F
 DIIS: error= 5.28D-07 at cycle   7 NSaved=   7.
 NSaved= 7 IEnMin= 7 EnMin= -56.1632845187123     IErMin= 7 ErrMin= 5.28D-07
 ErrMax= 5.28D-07 EMaxC= 1.00D-01 BMatC= 3.82D-12 BMatP= 5.32D-10
 IDIUse=1 WtCom= 1.00D+00 WtEn= 0.00D+00
 Coeff-Com:  0.596D-05 0.109D-04-0.576D-04-0.312D-02 0.241D-01-0.183D+00
 Coeff-Com:  0.116D+01
 Coeff:      0.596D-05 0.109D-04-0.576D-04-0.312D-02 0.241D-01-0.183D+00
 Coeff:      0.116D+01
 Gap=     0.610 Goal=   None    Shift=    0.000
 RMSDP=3.40D-07 MaxDP=1.62D-06 DE=-8.07D-10 OVMax= 1.18D-06

 Cycle   8  Pass 1  IDiag  1:
 E= -56.1632845187204     Delta-E=       -0.000000000008 Rises=F Damp=F
 DIIS: error= 1.01D-07 at cycle   8 NSaved=   8.
 NSaved= 8 IEnMin= 8 EnMin= -56.1632845187204     IErMin= 8 ErrMin= 1.01D-07
 ErrMax= 1.01D-07 EMaxC= 1.00D-01 BMatC= 1.11D-13 BMatP= 3.82D-12
 IDIUse=1 WtCom= 1.00D+00 WtEn= 0.00D+00
 Coeff-Com: -0.208D-05-0.173D-05 0.234D-04 0.942D-03-0.734D-02 0.543D-01
 Coeff-Com: -0.380D+00 0.133D+01
 Coeff:     -0.208D-05-0.173D-05 0.234D-04 0.942D-03-0.734D-02 0.543D-01
 Coeff:     -0.380D+00 0.133D+01
 Gap=     0.610 Goal=   None    Shift=    0.000
 RMSDP=9.22D-08 MaxDP=4.71D-07 DE=-8.06D-12 OVMax= 5.57D-07

 Cycle   9  Pass 1  IDiag  1:
 E= -56.1632845187208     Delta-E=        0.000000000000 Rises=F Damp=F
 DIIS: error= 3.44D-08 at cycle   9 NSaved=   9.
 NSaved= 9 IEnMin= 9 EnMin= -56.1632845187208     IErMin= 9 ErrMin= 3.44D-08
 ErrMax= 3.44D-08 EMaxC= 1.00D-01 BMatC= 8.61D-15 BMatP= 1.11D-13
 IDIUse=1 WtCom= 1.00D+00 WtEn= 0.00D+00
 Coeff-Com:  0.879D-06 0.146D-05-0.738D-05-0.445D-03 0.334D-02-0.247D-01
 Coeff-Com:  0.173D+00-0.784D+00 0.163D+01
 Coeff:      0.879D-06 0.146D-05-0.738D-05-0.445D-03 0.334D-02-0.247D-01
 Coeff:      0.173D+00-0.784D+00 0.163D+01
 Gap=     0.610 Goal=   None    Shift=    0.000
 RMSDP=3.73D-08 MaxDP=1.93D-07 DE=-3.84D-13 OVMax= 2.41D-07

 Cycle  10  Pass 1  IDiag  1:
 E= -56.1632845187209     Delta-E=        0.000000000000 Rises=F Damp=F
 DIIS: error= 2.61D-09 at cycle  10 NSaved=  10.
 NSaved=10 IEnMin=10 EnMin= -56.1632845187209     IErMin=10 ErrMin= 2.61D-09
 ErrMax= 2.61D-09 EMaxC= 1.00D-01 BMatC= 9.08D-17 BMatP= 8.61D-15
 IDIUse=1 WtCom= 1.00D+00 WtEn= 0.00D+00
 Coeff-Com: -0.804D-07 0.678D-08 0.111D-05 0.291D-04-0.224D-03 0.164D-02
 Coeff-Com: -0.119D-01 0.797D-01-0.272D+00 0.120D+01
 Coeff:     -0.804D-07 0.678D-08 0.111D-05 0.291D-04-0.224D-03 0.164D-02
 Coeff:     -0.119D-01 0.797D-01-0.272D+00 0.120D+01
 Gap=     0.610 Goal=   None    Shift=    0.000
 RMSDP=2.99D-09 MaxDP=1.43D-08 DE=-1.56D-13 OVMax= 2.01D-08

 SCF Done:  E(RHF) =  -56.1632845187     A.U. after   10 cycles
             Convg  =    0.2991D-08             -V/T =  2.0016
 KE= 5.607239312172D+01 PE=-1.554512673459D+02 EE= 3.140210805398D+01
 Leave Link  502 at Fri Mar 27 20:13:23 2020, MaxMem=   33554432 cpu:       0.0
 (Enter D:\G09W\l601.exe)
 Copying SCF densities to generalized density rwf, IOpCl= 0 IROHF=0.

 **********************************************************************

            Population analysis using the SCF density.

 **********************************************************************

 Orbital symmetries:
       Occupied  (A1) (A1) (E) (E) (A1)
       Virtual   (A1) (E) (E) (E) (E) (A1) (A1) (E) (E) (A1)
 The electronic state is 1-A1.
 Alpha  occ. eigenvalues --  -15.52622  -1.11564  -0.62802  -0.62802  -0.38942
 Alpha virt. eigenvalues --    0.22096   0.32182   0.32182   0.96941   0.96941
 Alpha virt. eigenvalues --    0.97335   1.12203   1.25092   1.25092   1.44775
          Condensed to atoms (all electrons):
              1          2          3          4
     1  N    6.990568   0.333131   0.333131   0.333131
     2  H    0.333131   0.387338  -0.025228  -0.025228
     3  H    0.333131  -0.025228   0.387338  -0.025228
     4  H    0.333131  -0.025228  -0.025228   0.387338
 Mulliken atomic charges:
              1
     1  N   -0.989961
     2  H    0.329987
     3  H    0.329987
     4  H    0.329987
 Sum of Mulliken atomic charges =   0.00000
 Mulliken charges with hydrogens summed into heavy atoms:
              1
     1  N    0.000000
 Sum of Mulliken charges with hydrogens summed into heavy atoms =   0.00000
 Electronic spatial extent (au):  <R**2>=             26.3666
 Charge=              0.0000 electrons
 Dipole moment (field-independent basis, Debye):
    X=              0.0000    Y=              0.0000    Z=             -1.3708  Tot=              1.3708
 Quadrupole moment (field-independent basis, Debye-Ang):
   XX=             -5.6399   YY=             -5.6399   ZZ=             -9.3711
   XY=              0.0000   XZ=              0.0000   YZ=              0.0000
 Traceless Quadrupole moment (field-independent basis, Debye-Ang):
   XX=              1.2437   YY=              1.2437   ZZ=             -2.4875
   XY=              0.0000   XZ=              0.0000   YZ=              0.0000
 Octapole moment (field-independent basis, Debye-Ang**2):
  XXX=              0.0000  YYY=              1.1729  ZZZ=             -1.1548  XYY=              0.0000
  XXY=             -1.1729  XXZ=             -0.6316  XZZ=              0.0000  YZZ=              0.0000
  YYZ=             -0.6316  XYZ=              0.0000
 Hexadecapole moment (field-independent basis, Debye-Ang**3):
 XXXX=             -8.9273 YYYY=             -8.9273 ZZZZ=             -9.2784 XXXY=              0.0000
 XXXZ=              0.0000 YYYX=              0.0000 YYYZ=             -0.2126 ZZZX=              0.0000
 ZZZY=              0.0000 XXYY=             -2.9758 XXZZ=             -3.3252 YYZZ=             -3.3252
 XXYZ=              0.2126 YYXZ=              0.0000 ZZXY=              0.0000
 N-N= 1.181348165143D+01 E-N=-1.554512673499D+02  KE= 5.607239312172D+01
 Symmetry A'   KE= 5.352125277841D+01
 Symmetry A"   KE= 2.551140343313D+00
 No NMR shielding tensors so no spin-rotation constants.
 Leave Link  601 at Fri Mar 27 20:13:23 2020, MaxMem=   33554432 cpu:       0.0
 (Enter D:\G09W\l701.exe)
 Compute integral first derivatives.
 ... and contract with generalized density number  0.
 Leave Link  701 at Fri Mar 27 20:13:24 2020, MaxMem=   33554432 cpu:       1.0
 (Enter D:\G09W\l702.exe)
 L702 exits ... SP integral derivatives will be done elsewhere.
 Leave Link  702 at Fri Mar 27 20:13:24 2020, MaxMem=   33554432 cpu:       0.0
 (Enter D:\G09W\l703.exe)
 Compute integral first derivatives, UseDBF=F ICtDFT=           0.
 Integral derivatives from FoFDir, PRISM(SPDF).
 Calling FoFJK, ICntrl=      2127 FMM=F ISym2X=1 I1Cent= 0 IOpClX= 0 NMat=1 NMatS=1 NMatT=0.
 FoFCou: FMM=F IPFlag=           0 FMFlag=      100000 FMFlg1=         800
         NFxFlg=           0 DoJE=F BraDBF=F KetDBF=F FulRan=T
         Omega=  0.000000  0.000000  1.000000  0.000000  0.000000 ICntrl=    2127 IOpCl=  0
         NMat0=    1 NMatS0=    1 NMatT0=    0 NMatD0=    1 NMtDS0=    0 NMtDT0=    0
         I1Cent=           0 NGrid=           0.
 Petite list used in FoFCou.
 Leave Link  703 at Fri Mar 27 20:13:24 2020, MaxMem=   33554432 cpu:       0.0
 (Enter D:\G09W\l716.exe)
 Dipole        =-2.22044605D-16-3.33066907D-16-5.39313748D-01
 ***** Axes restored to original set *****
 -------------------------------------------------------------------
 Center     Atomic                   Forces (Hartrees/Bohr)
 Number     Number              X              Y              Z
 -------------------------------------------------------------------
      1        7           0.000000000    0.000000000   -0.011452958
      2        1           0.000000000   -0.026497648    0.003817653
      3        1          -0.022947636    0.013248824    0.003817653
      4        1           0.022947636    0.013248824    0.003817653
 -------------------------------------------------------------------
 Cartesian Forces:  Max     0.026497648 RMS     0.013787886
 Leave Link  716 at Fri Mar 27 20:13:24 2020, MaxMem=   33554432 cpu:       0.0
 (Enter D:\G09W\l103.exe)

 GradGradGradGradGradGradGradGradGradGradGradGradGradGradGradGradGradGrad
 Berny optimization.
 Internal  Forces:  Max     0.026731785 RMS     0.017529714
 Search for a local minimum.
 Step number   1 out of a maximum of   20
 All quantities printed in internal units (Hartrees-Bohrs-Radians)
 RMS Force = .17530D-01 SwitMx=.10000D-02 MixMth= 1
 Mixed Optimization -- RFO/linear search
 Second derivative matrix not updated -- first step.
 The second derivative matrix:
                          R1        R2        R3        A1        A2
           R1           0.44369
           R2           0.00000   0.44369
           R3           0.00000   0.00000   0.44369
           A1           0.00000   0.00000   0.00000   0.16000
           A2           0.00000   0.00000   0.00000   0.00000   0.16000
           A3           0.00000   0.00000   0.00000   0.00000   0.00000
           D1           0.00000   0.00000   0.00000   0.00000   0.00000
                          A3        D1
           A3           0.16000
           D1           0.00000   0.00766
 ITU=  0
     Eigenvalues ---    0.02545   0.16000   0.16000   0.44369   0.44369
     Eigenvalues ---    0.44369
 RFO step:  Lambda=-4.99741104D-03 EMin= 2.54460627D-02
 Linear search not attempted -- first point.
 Iteration  1 RMS(Cart)=  0.04626159 RMS(Int)=  0.00117168
 Iteration  2 RMS(Cart)=  0.00056676 RMS(Int)=  0.00078124
 Iteration  3 RMS(Cart)=  0.00000103 RMS(Int)=  0.00078124
 Iteration  4 RMS(Cart)=  0.00000000 RMS(Int)=  0.00078124
 ClnCor:  largest displacement from symmetrization is 8.61D-04 for atom     4.
 Variable       Old X    -DE/DX   Delta X   Delta X   Delta X     New X
                                 (Linear)    (Quad)   (Total)
    R1        1.92715  -0.02673   0.00000  -0.05958  -0.05931   1.86784
    R2        1.92715  -0.02673   0.00000  -0.05958  -0.05931   1.86784
    R3        1.92715  -0.02673   0.00000  -0.05958  -0.05931   1.86784
    A1        2.02897   0.00005   0.00000  -0.01528  -0.01787   2.01110
    A2        2.02897  -0.00086   0.00000  -0.01758  -0.01787   2.01110
    A3        2.02897  -0.00086   0.00000  -0.01758  -0.01787   2.01110
    D1        2.48668  -0.00241   0.00000  -0.07902  -0.07863   2.40806
         Item               Value     Threshold  Converged?
 Maximum Force            0.026732     0.000450     NO 
 RMS     Force            0.017530     0.000300     NO 
 Maximum Displacement     0.068403     0.001800     NO 
 RMS     Displacement     0.046332     0.001200     NO 
 Predicted change in Energy=-2.533929D-03
 GradGradGradGradGradGradGradGradGradGradGradGradGradGradGradGradGradGrad

 Leave Link  103 at Fri Mar 27 20:13:24 2020, MaxMem=   33554432 cpu:       0.0
 (Enter D:\G09W\l202.exe)
                          Input orientation:                          
 ---------------------------------------------------------------------
 Center     Atomic      Atomic             Coordinates (Angstroms)
 Number     Number       Type             X           Y           Z
 ---------------------------------------------------------------------
      1          7           0        0.000000    0.000000    0.014429
      2          1           0        0.000000    0.963803   -0.204791
      3          1           0        0.834678   -0.481901   -0.204791
      4          1           0       -0.834678   -0.481901   -0.204791
 ---------------------------------------------------------------------
                    Distance matrix (angstroms):
                    1          2          3          4
     1  N    0.000000
     2  H    0.988419   0.000000
     3  H    0.988419   1.669355   0.000000
     4  H    0.988419   1.669355   1.669355   0.000000
 Stoichiometry    H3N
 Framework group  C3V[C3(N),3SGV(H)]
 Deg. of freedom     2
 Full point group                 C3V     NOp   6
 Largest Abelian subgroup         CS      NOp   2
 Largest concise Abelian subgroup CS      NOp   2
                         Standard orientation:                         
 ---------------------------------------------------------------------
 Center     Atomic      Atomic             Coordinates (Angstroms)
 Number     Number       Type             X           Y           Z
 ---------------------------------------------------------------------
      1          7           0        0.000000    0.000000    0.065766
      2          1           0        0.000000    0.963803   -0.153454
      3          1           0        0.834678   -0.481901   -0.153454
      4          1           0       -0.834678   -0.481901   -0.153454
 ---------------------------------------------------------------------
 Rotational constants (GHZ):    331.6623554    331.6623554    179.9428273
 Leave Link  202 at Fri Mar 27 20:13:24 2020, MaxMem=   33554432 cpu:       0.0
 (Enter D:\G09W\l301.exe)
 Standard basis: 6-31G (6D, 7F)
 Ernie: Thresh=  0.10000D-02 Tol=  0.10000D-05 Strict=F.
 There are    11 symmetry adapted basis functions of A'  symmetry.
 There are     4 symmetry adapted basis functions of A"  symmetry.
 Integral buffers will be    262144 words long.
 Raffenetti 1 integral format.
 Two-electron integral symmetry is turned on.
    15 basis functions,    34 primitive gaussians,    15 cartesian basis functions
     5 alpha electrons        5 beta electrons
       nuclear repulsion energy        12.1939049964 Hartrees.
 IExCor=    0 DFT=F Ex=HF Corr=None ExCW=0 ScaHFX=  1.000000
 ScaDFX=  1.000000  1.000000  1.000000  1.000000 ScalE2=  1.000000  1.000000
 IRadAn=      0 IRanWt=     -1 IRanGd=            0 ICorTp=0
 NAtoms=    4 NActive=    4 NUniq=    2 SFac= 4.00D+00 NAtFMM=   50 NAOKFM=F Big=F
 Leave Link  301 at Fri Mar 27 20:13:24 2020, MaxMem=   33554432 cpu:       0.0
 (Enter D:\G09W\l302.exe)
 NPDir=0 NMtPBC=     1 NCelOv=     1 NCel=       1 NClECP=     1 NCelD=      1
         NCelK=      1 NCelE2=     1 NClLst=     1 CellRange=     0.0.
 One-electron integrals computed using PRISM.
 One-electron integral symmetry used in STVInt
 NBasis=    15 RedAO= T  NBF=    11     4
 NBsUse=    15 1.00D-06 NBFU=    11     4
 Leave Link  302 at Fri Mar 27 20:13:24 2020, MaxMem=   33554432 cpu:       0.0
 (Enter D:\G09W\l303.exe)
 DipDrv:  MaxL=1.
 Leave Link  303 at Fri Mar 27 20:13:24 2020, MaxMem=   33554432 cpu:       0.0
 (Enter D:\G09W\l401.exe)
 Initial guess read from the read-write file.
 B after Tr=     0.000000    0.000000    0.000000
         Rot=    1.000000    0.000000    0.000000    0.000000 Ang=   0.00 deg.
 Guess basis will be translated and rotated to current coordinates.
 Initial guess orbital symmetries:
       Occupied  (A1) (A1) (E) (E) (A1)
       Virtual   (A1) (E) (E) (E) (E) (A1) (A1) (E) (E) (A1)
 The electronic state of the initial guess is 1-A1.
 Generating alternative initial guess.
 Harris functional with IExCor=  205 diagonalized for initial guess.
 ExpMin= 1.61D-01 ExpMax= 4.17D+03 ExpMxC= 6.27D+02 IAcc=1 IRadAn=         1 AccDes= 0.00D+00
 HarFok:  IExCor=  205 AccDes= 0.00D+00 IRadAn=         1 IDoV= 1
 ScaDFX=  1.000000  1.000000  1.000000  1.000000
 FoFCou: FMM=F IPFlag=           0 FMFlag=      100000 FMFlg1=           0
         NFxFlg=           0 DoJE=T BraDBF=F KetDBF=T FulRan=T
         Omega=  0.000000  0.000000  1.000000  0.000000  0.000000 ICntrl=     500 IOpCl=  0
         NMat0=    1 NMatS0=    1 NMatT0=    0 NMatD0=    1 NMtDS0=    0 NMtDT0=    0
         I1Cent=           4 NGrid=           0.
 Petite list used in FoFCou.
 Harris En= -56.3059268556923    
 Leave Link  401 at Fri Mar 27 20:13:24 2020, MaxMem=   33554432 cpu:       0.0
 (Enter D:\G09W\l502.exe)
 Closed shell SCF:
 Requested convergence on RMS density matrix=1.00D-08 within 128 cycles.
 Requested convergence on MAX density matrix=1.00D-06.
 Requested convergence on             energy=1.00D-06.
 No special actions if energy rises.
 Using DIIS extrapolation, IDIIS=  1040.
 Integral symmetry usage will be decided dynamically.
 Keep R1 ints in memory in canonical form, NReq=827020.
 IEnd=       19746 IEndB=       19746 NGot=    33554432 MDV=    33544501
 LenX=    33544501 LenY=    33543619
 Symmetry not used in FoFDir.
 MinBra= 0 MaxBra= 1 Meth= 1.
 IRaf=       0 NMat=   1 IRICut=       1 DoRegI=T DoRafI=F ISym2E= 0 JSym2E=0.

 Cycle   1  Pass 1  IDiag  1:
 E= -56.1645700003926    
 DIIS: error= 5.79D-03 at cycle   1 NSaved=   1.
 NSaved= 1 IEnMin= 1 EnMin= -56.1645700003926     IErMin= 1 ErrMin= 5.79D-03
 ErrMax= 5.79D-03 EMaxC= 1.00D-01 BMatC= 7.36D-04 BMatP= 7.36D-04
 IDIUse=3 WtCom= 9.42D-01 WtEn= 5.79D-02
 Coeff-Com:  0.100D+01
 Coeff-En:   0.100D+01
 Coeff:      0.100D+01
 Gap=     0.631 Goal=   None    Shift=    0.000
 GapD=    0.631 DampG=2.000 DampE=1.000 DampFc=2.0000 IDamp=-1.
 RMSDP=1.72D-03 MaxDP=7.53D-03              OVMax= 9.69D-03

 Cycle   2  Pass 1  IDiag  1:
 E= -56.1653274616026     Delta-E=       -0.000757461210 Rises=F Damp=F
 DIIS: error= 2.29D-03 at cycle   2 NSaved=   2.
 NSaved= 2 IEnMin= 2 EnMin= -56.1653274616026     IErMin= 2 ErrMin= 2.29D-03
 ErrMax= 2.29D-03 EMaxC= 1.00D-01 BMatC= 1.16D-04 BMatP= 7.36D-04
 IDIUse=3 WtCom= 9.77D-01 WtEn= 2.29D-02
 Coeff-Com:  0.196D+00 0.804D+00
 Coeff-En:   0.000D+00 0.100D+01
 Coeff:      0.191D+00 0.809D+00
 Gap=     0.621 Goal=   None    Shift=    0.000
 RMSDP=5.65D-04 MaxDP=4.54D-03 DE=-7.57D-04 OVMax= 1.91D-03

 Cycle   3  Pass 1  IDiag  1:
 E= -56.1654279166111     Delta-E=       -0.000100455009 Rises=F Damp=F
 DIIS: error= 7.65D-04 at cycle   3 NSaved=   3.
 NSaved= 3 IEnMin= 3 EnMin= -56.1654279166111     IErMin= 3 ErrMin= 7.65D-04
 ErrMax= 7.65D-04 EMaxC= 1.00D-01 BMatC= 7.95D-06 BMatP= 1.16D-04
 IDIUse=3 WtCom= 9.92D-01 WtEn= 7.65D-03
 Coeff-Com: -0.877D-01 0.717D-01 0.102D+01
 Coeff-En:   0.000D+00 0.000D+00 0.100D+01
 Coeff:     -0.870D-01 0.712D-01 0.102D+01
 Gap=     0.623 Goal=   None    Shift=    0.000
 RMSDP=1.60D-04 MaxDP=8.16D-04 DE=-1.00D-04 OVMax= 9.47D-04

 Cycle   4  Pass 1  IDiag  1:
 E= -56.1654370317036     Delta-E=       -0.000009115092 Rises=F Damp=F
 DIIS: error= 8.57D-05 at cycle   4 NSaved=   4.
 NSaved= 4 IEnMin= 4 EnMin= -56.1654370317036     IErMin= 4 ErrMin= 8.57D-05
 ErrMax= 8.57D-05 EMaxC= 1.00D-01 BMatC= 9.07D-08 BMatP= 7.95D-06
 IDIUse=1 WtCom= 1.00D+00 WtEn= 0.00D+00
 Coeff-Com:  0.272D-01-0.262D-01-0.359D+00 0.136D+01
 Coeff:      0.272D-01-0.262D-01-0.359D+00 0.136D+01
 Gap=     0.622 Goal=   None    Shift=    0.000
 RMSDP=3.40D-05 MaxDP=2.74D-04 DE=-9.12D-06 OVMax= 1.16D-04

 Cycle   5  Pass 1  IDiag  1:
 E= -56.1654372355382     Delta-E=       -0.000000203835 Rises=F Damp=F
 DIIS: error= 1.97D-05 at cycle   5 NSaved=   5.
 NSaved= 5 IEnMin= 5 EnMin= -56.1654372355382     IErMin= 5 ErrMin= 1.97D-05
 ErrMax= 1.97D-05 EMaxC= 1.00D-01 BMatC= 2.63D-09 BMatP= 9.07D-08
 IDIUse=1 WtCom= 1.00D+00 WtEn= 0.00D+00
 Coeff-Com: -0.434D-02 0.419D-02 0.634D-01-0.368D+00 0.130D+01
 Coeff:     -0.434D-02 0.419D-02 0.634D-01-0.368D+00 0.130D+01
 Gap=     0.622 Goal=   None    Shift=    0.000
 RMSDP=9.08D-06 MaxDP=5.57D-05 DE=-2.04D-07 OVMax= 5.00D-05

 Cycle   6  Pass 1  IDiag  1:
 E= -56.1654372436582     Delta-E=       -0.000000008120 Rises=F Damp=F
 DIIS: error= 3.02D-06 at cycle   6 NSaved=   6.
 NSaved= 6 IEnMin= 6 EnMin= -56.1654372436582     IErMin= 6 ErrMin= 3.02D-06
 ErrMax= 3.02D-06 EMaxC= 1.00D-01 BMatC= 7.49D-11 BMatP= 2.63D-09
 IDIUse=1 WtCom= 1.00D+00 WtEn= 0.00D+00
 Coeff-Com:  0.912D-03-0.948D-03-0.143D-01 0.102D+00-0.489D+00 0.140D+01
 Coeff:      0.912D-03-0.948D-03-0.143D-01 0.102D+00-0.489D+00 0.140D+01
 Gap=     0.622 Goal=   None    Shift=    0.000
 RMSDP=2.63D-06 MaxDP=1.16D-05 DE=-8.12D-09 OVMax= 1.66D-05

 Cycle   7  Pass 1  IDiag  1:
 E= -56.1654372439936     Delta-E=       -0.000000000335 Rises=F Damp=F
 DIIS: error= 6.04D-07 at cycle   7 NSaved=   7.
 NSaved= 7 IEnMin= 7 EnMin= -56.1654372439936     IErMin= 7 ErrMin= 6.04D-07
 ErrMax= 6.04D-07 EMaxC= 1.00D-01 BMatC= 3.04D-12 BMatP= 7.49D-11
 IDIUse=1 WtCom= 1.00D+00 WtEn= 0.00D+00
 Coeff-Com: -0.514D-03 0.540D-03 0.791D-02-0.557D-01 0.271D+00-0.875D+00
 Coeff-Com:  0.165D+01
 Coeff:     -0.514D-03 0.540D-03 0.791D-02-0.557D-01 0.271D+00-0.875D+00
 Coeff:      0.165D+01
 Gap=     0.622 Goal=   None    Shift=    0.000
 RMSDP=7.39D-07 MaxDP=3.97D-06 DE=-3.35D-10 OVMax= 4.38D-06

 Cycle   8  Pass 1  IDiag  1:
 E= -56.1654372440085     Delta-E=       -0.000000000015 Rises=F Damp=F
 DIIS: error= 3.69D-08 at cycle   8 NSaved=   8.
 NSaved= 8 IEnMin= 8 EnMin= -56.1654372440085     IErMin= 8 ErrMin= 3.69D-08
 ErrMax= 3.69D-08 EMaxC= 1.00D-01 BMatC= 2.76D-14 BMatP= 3.04D-12
 IDIUse=1 WtCom= 1.00D+00 WtEn= 0.00D+00
 Coeff-Com:  0.994D-04-0.983D-04-0.157D-02 0.110D-01-0.536D-01 0.176D+00
 Coeff-Com: -0.364D+00 0.123D+01
 Coeff:      0.994D-04-0.983D-04-0.157D-02 0.110D-01-0.536D-01 0.176D+00
 Coeff:     -0.364D+00 0.123D+01
 Gap=     0.622 Goal=   None    Shift=    0.000
 RMSDP=2.64D-08 MaxDP=9.99D-08 DE=-1.49D-11 OVMax= 1.27D-07

 Cycle   9  Pass 1  IDiag  1:
 E= -56.1654372440084     Delta-E=        0.000000000000 Rises=F Damp=F
 DIIS: error= 3.97D-09 at cycle   9 NSaved=   9.
 NSaved= 9 IEnMin= 8 EnMin= -56.1654372440085     IErMin= 9 ErrMin= 3.97D-09
 ErrMax= 3.97D-09 EMaxC= 1.00D-01 BMatC= 2.36D-16 BMatP= 2.76D-14
 IDIUse=1 WtCom= 1.00D+00 WtEn= 0.00D+00
 Coeff-Com: -0.656D-05 0.632D-05 0.108D-03-0.777D-03 0.386D-02-0.131D-01
 Coeff-Com:  0.295D-01-0.208D+00 0.119D+01
 Coeff:     -0.656D-05 0.632D-05 0.108D-03-0.777D-03 0.386D-02-0.131D-01
 Coeff:      0.295D-01-0.208D+00 0.119D+01
 Gap=     0.622 Goal=   None    Shift=    0.000
 RMSDP=2.22D-09 MaxDP=1.03D-08 DE= 1.14D-13 OVMax= 9.90D-09

 SCF Done:  E(RHF) =  -56.1654372440     A.U. after    9 cycles
             Convg  =    0.2217D-08             -V/T =  1.9985
 KE= 5.624759001722D+01 PE=-1.563049404602D+02 EE= 3.169800820258D+01
 Leave Link  502 at Fri Mar 27 20:13:24 2020, MaxMem=   33554432 cpu:       0.0
 (Enter D:\G09W\l701.exe)
 Compute integral first derivatives.
 ... and contract with generalized density number  0.
 Leave Link  701 at Fri Mar 27 20:13:24 2020, MaxMem=   33554432 cpu:       0.0
 (Enter D:\G09W\l702.exe)
 L702 exits ... SP integral derivatives will be done elsewhere.
 Leave Link  702 at Fri Mar 27 20:13:24 2020, MaxMem=   33554432 cpu:       0.0
 (Enter D:\G09W\l703.exe)
 Compute integral first derivatives, UseDBF=F ICtDFT=           0.
 Integral derivatives from FoFDir, PRISM(SPDF).
 Calling FoFJK, ICntrl=      2127 FMM=F ISym2X=1 I1Cent= 0 IOpClX= 0 NMat=1 NMatS=1 NMatT=0.
 FoFCou: FMM=F IPFlag=           0 FMFlag=      100000 FMFlg1=         800
         NFxFlg=           0 DoJE=F BraDBF=F KetDBF=F FulRan=T
         Omega=  0.000000  0.000000  1.000000  0.000000  0.000000 ICntrl=    2127 IOpCl=  0
         NMat0=    1 NMatS0=    1 NMatT0=    0 NMatD0=    1 NMtDS0=    0 NMtDT0=    0
         I1Cent=           0 NGrid=           0.
 Petite list used in FoFCou.
 Leave Link  703 at Fri Mar 27 20:13:25 2020, MaxMem=   33554432 cpu:       0.0
 (Enter D:\G09W\l716.exe)
 Dipole        =-2.22044605D-16-1.11022302D-16-5.97628126D-01
 ***** Axes restored to original set *****
 -------------------------------------------------------------------
 Center     Atomic                   Forces (Hartrees/Bohr)
 Number     Number              X              Y              Z
 -------------------------------------------------------------------
      1        7           0.000000000    0.000000000    0.000458315
      2        1           0.000000000    0.004291551   -0.000152772
      3        1           0.003716593   -0.002145776   -0.000152772
      4        1          -0.003716593   -0.002145776   -0.000152772
 -------------------------------------------------------------------
 Cartesian Forces:  Max     0.004291551 RMS     0.002151207
 Leave Link  716 at Fri Mar 27 20:13:25 2020, MaxMem=   33554432 cpu:       0.0
 (Enter D:\G09W\l103.exe)

 GradGradGradGradGradGradGradGradGradGradGradGradGradGradGradGradGradGrad
 Berny optimization.
 Using GEDIIS/GDIIS optimizer.
 Internal  Forces:  Max     0.004218552 RMS     0.002817550
 Search for a local minimum.
 Step number   2 out of a maximum of   20
 All quantities printed in internal units (Hartrees-Bohrs-Radians)
 RMS Force = .28176D-02 SwitMx=.10000D-02 MixMth= 1
 Mixed Optimization -- RFO/linear search
 Update second derivatives using D2CorX and points    1    2
 DE= -2.15D-03 DEPred=-2.53D-03 R= 8.50D-01
 SS=  1.41D+00  RLast= 1.33D-01 DXNew= 5.0454D-01 3.9903D-01
 Trust test= 8.50D-01 RLast= 1.33D-01 DXMaxT set to 3.99D-01
 The second derivative matrix:
                          R1        R2        R3        A1        A2
           R1           0.46577
           R2           0.02208   0.46577
           R3           0.02208   0.02208   0.46577
           A1          -0.01574  -0.01574  -0.01574   0.15833
           A2          -0.00805  -0.00805  -0.00805  -0.00169   0.15866
           A3          -0.00805  -0.00805  -0.00805  -0.00169  -0.00134
           D1           0.01624   0.01624   0.01624  -0.00039   0.00052
                          A3        D1
           A3           0.15866
           D1           0.00052   0.00991
 ITU=  1  0
 Use linear search instead of GDIIS.
     Eigenvalues ---    0.03133   0.16000   0.16012   0.44369   0.44369
     Eigenvalues ---    0.51040
 RFO step:  Lambda=-9.42671336D-06 EMin= 3.13330887D-02
 Quartic linear search produced a step of -0.13652.
 Iteration  1 RMS(Cart)=  0.00854158 RMS(Int)=  0.00005258
 Iteration  2 RMS(Cart)=  0.00004252 RMS(Int)=  0.00001640
 Iteration  3 RMS(Cart)=  0.00000000 RMS(Int)=  0.00001640
 ClnCor:  largest displacement from symmetrization is 5.49D-04 for atom     4.
 Variable       Old X    -DE/DX   Delta X   Delta X   Delta X     New X
                                 (Linear)    (Quad)   (Total)
    R1        1.86784   0.00422   0.00810  -0.00074   0.00718   1.87503
    R2        1.86784   0.00422   0.00810  -0.00074   0.00718   1.87503
    R3        1.86784   0.00422   0.00810  -0.00074   0.00718   1.87503
    A1        2.01110  -0.00001   0.00244   0.00294   0.00621   2.01731
    A2        2.01110   0.00053   0.00244   0.00419   0.00621   2.01731
    A3        2.01110   0.00053   0.00244   0.00419   0.00621   2.01731
    D1        2.40806   0.00127   0.01073   0.01512   0.02608   2.43414
         Item               Value     Threshold  Converged?
 Maximum Force            0.004219     0.000450     NO 
 RMS     Force            0.002818     0.000300     NO 
 Maximum Displacement     0.010915     0.001800     NO 
 RMS     Displacement     0.008410     0.001200     NO 
 Predicted change in Energy=-7.382328D-05
 GradGradGradGradGradGradGradGradGradGradGradGradGradGradGradGradGradGrad

 Leave Link  103 at Fri Mar 27 20:13:25 2020, MaxMem=   33554432 cpu:       0.0
 (Enter D:\G09W\l202.exe)
                          Input orientation:                          
 ---------------------------------------------------------------------
 Center     Atomic      Atomic             Coordinates (Angstroms)
 Number     Number       Type             X           Y           Z
 ---------------------------------------------------------------------
      1          7           0        0.000000    0.000000    0.008654
      2          1           0        0.000000    0.969410   -0.202879
      3          1           0        0.839534   -0.484705   -0.202879
      4          1           0       -0.839534   -0.484705   -0.202879
 ---------------------------------------------------------------------
                    Distance matrix (angstroms):
                    1          2          3          4
     1  N    0.000000
     2  H    0.992221   0.000000
     3  H    0.992221   1.679068   0.000000
     4  H    0.992221   1.679068   1.679068   0.000000
 Stoichiometry    H3N
 Framework group  C3V[C3(N),3SGV(H)]
 Deg. of freedom     2
 Full point group                 C3V     NOp   6
 Largest Abelian subgroup         CS      NOp   2
 Largest concise Abelian subgroup CS      NOp   2
                         Standard orientation:                         
 ---------------------------------------------------------------------
 Center     Atomic      Atomic             Coordinates (Angstroms)
 Number     Number       Type             X           Y           Z
 ---------------------------------------------------------------------
      1          7           0        0.000000    0.000000    0.063460
      2          1           0        0.000000    0.969410   -0.148073
      3          1           0        0.839534   -0.484705   -0.148073
      4          1           0       -0.839534   -0.484705   -0.148073
 ---------------------------------------------------------------------
 Rotational constants (GHZ):    329.8969934    329.8969934    177.8671233
 Leave Link  202 at Fri Mar 27 20:13:25 2020, MaxMem=   33554432 cpu:       0.0
 (Enter D:\G09W\l301.exe)
 Standard basis: 6-31G (6D, 7F)
 Ernie: Thresh=  0.10000D-02 Tol=  0.10000D-05 Strict=F.
 There are    11 symmetry adapted basis functions of A'  symmetry.
 There are     4 symmetry adapted basis functions of A"  symmetry.
 Integral buffers will be    262144 words long.
 Raffenetti 1 integral format.
 Two-electron integral symmetry is turned on.
    15 basis functions,    34 primitive gaussians,    15 cartesian basis functions
     5 alpha electrons        5 beta electrons
       nuclear repulsion energy        12.1453305518 Hartrees.
 IExCor=    0 DFT=F Ex=HF Corr=None ExCW=0 ScaHFX=  1.000000
 ScaDFX=  1.000000  1.000000  1.000000  1.000000 ScalE2=  1.000000  1.000000
 IRadAn=      0 IRanWt=     -1 IRanGd=            0 ICorTp=0
 NAtoms=    4 NActive=    4 NUniq=    2 SFac= 4.00D+00 NAtFMM=   50 NAOKFM=F Big=F
 Leave Link  301 at Fri Mar 27 20:13:25 2020, MaxMem=   33554432 cpu:       0.0
 (Enter D:\G09W\l302.exe)
 NPDir=0 NMtPBC=     1 NCelOv=     1 NCel=       1 NClECP=     1 NCelD=      1
         NCelK=      1 NCelE2=     1 NClLst=     1 CellRange=     0.0.
 One-electron integrals computed using PRISM.
 One-electron integral symmetry used in STVInt
 NBasis=    15 RedAO= T  NBF=    11     4
 NBsUse=    15 1.00D-06 NBFU=    11     4
 Leave Link  302 at Fri Mar 27 20:13:25 2020, MaxMem=   33554432 cpu:       0.0
 (Enter D:\G09W\l303.exe)
 DipDrv:  MaxL=1.
 Leave Link  303 at Fri Mar 27 20:13:25 2020, MaxMem=   33554432 cpu:       0.0
 (Enter D:\G09W\l401.exe)
 Initial guess read from the read-write file.
 B after Tr=     0.000000    0.000000    0.000000
         Rot=    1.000000    0.000000    0.000000    0.000000 Ang=   0.00 deg.
 Guess basis will be translated and rotated to current coordinates.
 Initial guess orbital symmetries:
       Occupied  (A1) (A1) (E) (E) (A1)
       Virtual   (A1) (E) (E) (E) (E) (A1) (A1) (E) (E) (A1)
 The electronic state of the initial guess is 1-A1.
 Leave Link  401 at Fri Mar 27 20:13:25 2020, MaxMem=   33554432 cpu:       0.0
 (Enter D:\G09W\l502.exe)
 Closed shell SCF:
 Requested convergence on RMS density matrix=1.00D-08 within 128 cycles.
 Requested convergence on MAX density matrix=1.00D-06.
 Requested convergence on             energy=1.00D-06.
 No special actions if energy rises.
 Using DIIS extrapolation, IDIIS=  1040.
 Integral symmetry usage will be decided dynamically.
 Keep R1 ints in memory in canonical form, NReq=827020.
 IEnd=       19746 IEndB=       19746 NGot=    33554432 MDV=    33544501
 LenX=    33544501 LenY=    33543619
 Symmetry not used in FoFDir.
 MinBra= 0 MaxBra= 1 Meth= 1.
 IRaf=       0 NMat=   1 IRICut=       1 DoRegI=T DoRafI=F ISym2E= 0 JSym2E=0.

 Cycle   1  Pass 1  IDiag  1:
 E= -56.1654837163497    
 DIIS: error= 9.98D-04 at cycle   1 NSaved=   1.
 NSaved= 1 IEnMin= 1 EnMin= -56.1654837163497     IErMin= 1 ErrMin= 9.98D-04
 ErrMax= 9.98D-04 EMaxC= 1.00D-01 BMatC= 1.78D-05 BMatP= 1.78D-05
 IDIUse=3 WtCom= 9.90D-01 WtEn= 9.98D-03
 Coeff-Com:  0.100D+01
 Coeff-En:   0.100D+01
 Coeff:      0.100D+01
 Gap=     0.620 Goal=   None    Shift=    0.000
 RMSDP=2.83D-04 MaxDP=1.01D-03              OVMax= 1.05D-03

 Cycle   2  Pass 1  IDiag  1:
 E= -56.1655059516540     Delta-E=       -0.000022235304 Rises=F Damp=F
 DIIS: error= 3.64D-04 at cycle   2 NSaved=   2.
 NSaved= 2 IEnMin= 2 EnMin= -56.1655059516540     IErMin= 2 ErrMin= 3.64D-04
 ErrMax= 3.64D-04 EMaxC= 1.00D-01 BMatC= 1.87D-06 BMatP= 1.78D-05
 IDIUse=3 WtCom= 9.96D-01 WtEn= 3.64D-03
 Coeff-Com:  0.437D-01 0.956D+00
 Coeff-En:   0.000D+00 0.100D+01
 Coeff:      0.435D-01 0.956D+00
 Gap=     0.621 Goal=   None    Shift=    0.000
 RMSDP=1.01D-04 MaxDP=6.30D-04 DE=-2.22D-05 OVMax= 3.19D-04

 Cycle   3  Pass 1  IDiag  1:
 E= -56.1655079647029     Delta-E=       -0.000002013049 Rises=F Damp=F
 DIIS: error= 1.34D-04 at cycle   3 NSaved=   3.
 NSaved= 3 IEnMin= 3 EnMin= -56.1655079647029     IErMin= 3 ErrMin= 1.34D-04
 ErrMax= 1.34D-04 EMaxC= 1.00D-01 BMatC= 3.28D-07 BMatP= 1.87D-06
 IDIUse=3 WtCom= 9.99D-01 WtEn= 1.34D-03
 Coeff-Com: -0.105D+00 0.219D+00 0.886D+00
 Coeff-En:   0.000D+00 0.000D+00 0.100D+01
 Coeff:     -0.105D+00 0.219D+00 0.886D+00
 Gap=     0.621 Goal=   None    Shift=    0.000
 RMSDP=3.89D-05 MaxDP=1.43D-04 DE=-2.01D-06 OVMax= 1.63D-04

 Cycle   4  Pass 1  IDiag  1:
 E= -56.1655083250068     Delta-E=       -0.000000360304 Rises=F Damp=F
 DIIS: error= 2.47D-05 at cycle   4 NSaved=   4.
 NSaved= 4 IEnMin= 4 EnMin= -56.1655083250068     IErMin= 4 ErrMin= 2.47D-05
 ErrMax= 2.47D-05 EMaxC= 1.00D-01 BMatC= 4.73D-09 BMatP= 3.28D-07
 IDIUse=1 WtCom= 1.00D+00 WtEn= 0.00D+00
 Coeff-Com:  0.421D-01-0.950D-01-0.411D+00 0.146D+01
 Coeff:      0.421D-01-0.950D-01-0.411D+00 0.146D+01
 Gap=     0.621 Goal=   None    Shift=    0.000
 RMSDP=1.96D-05 MaxDP=9.81D-05 DE=-3.60D-07 OVMax= 1.21D-04

 Cycle   5  Pass 1  IDiag  1:
 E= -56.1655083442239     Delta-E=       -0.000000019217 Rises=F Damp=F
 DIIS: error= 5.65D-06 at cycle   5 NSaved=   5.
 NSaved= 5 IEnMin= 5 EnMin= -56.1655083442239     IErMin= 5 ErrMin= 5.65D-06
 ErrMax= 5.65D-06 EMaxC= 1.00D-01 BMatC= 2.24D-10 BMatP= 4.73D-09
 IDIUse=1 WtCom= 1.00D+00 WtEn= 0.00D+00
 Coeff-Com: -0.939D-02 0.213D-01 0.996D-01-0.533D+00 0.142D+01
 Coeff:     -0.939D-02 0.213D-01 0.996D-01-0.533D+00 0.142D+01
 Gap=     0.621 Goal=   None    Shift=    0.000
 RMSDP=5.73D-06 MaxDP=2.89D-05 DE=-1.92D-08 OVMax= 3.61D-05

 Cycle   6  Pass 1  IDiag  1:
 E= -56.1655083453517     Delta-E=       -0.000000001128 Rises=F Damp=F
 DIIS: error= 4.29D-07 at cycle   6 NSaved=   6.
 NSaved= 6 IEnMin= 6 EnMin= -56.1655083453517     IErMin= 6 ErrMin= 4.29D-07
 ErrMax= 4.29D-07 EMaxC= 1.00D-01 BMatC= 3.06D-12 BMatP= 2.24D-10
 IDIUse=1 WtCom= 1.00D+00 WtEn= 0.00D+00
 Coeff-Com:  0.133D-02-0.332D-02-0.144D-01 0.987D-01-0.373D+00 0.129D+01
 Coeff:      0.133D-02-0.332D-02-0.144D-01 0.987D-01-0.373D+00 0.129D+01
 Gap=     0.621 Goal=   None    Shift=    0.000
 RMSDP=5.73D-07 MaxDP=2.79D-06 DE=-1.13D-09 OVMax= 3.51D-06

 Cycle   7  Pass 1  IDiag  1:
 E= -56.1655083453630     Delta-E=       -0.000000000011 Rises=F Damp=F
 DIIS: error= 3.82D-08 at cycle   7 NSaved=   7.
 NSaved= 7 IEnMin= 7 EnMin= -56.1655083453630     IErMin= 7 ErrMin= 3.82D-08
 ErrMax= 3.82D-08 EMaxC= 1.00D-01 BMatC= 1.61D-14 BMatP= 3.06D-12
 IDIUse=1 WtCom= 1.00D+00 WtEn= 0.00D+00
 Coeff-Com: -0.341D-03 0.841D-03 0.369D-02-0.251D-01 0.956D-01-0.358D+00
 Coeff-Com:  0.128D+01
 Coeff:     -0.341D-03 0.841D-03 0.369D-02-0.251D-01 0.956D-01-0.358D+00
 Coeff:      0.128D+01
 Gap=     0.621 Goal=   None    Shift=    0.000
 RMSDP=2.01D-08 MaxDP=9.78D-08 DE=-1.12D-11 OVMax= 1.11D-07

 Cycle   8  Pass 1  IDiag  1:
 E= -56.1655083453629     Delta-E=        0.000000000000 Rises=F Damp=F
 DIIS: error= 5.34D-09 at cycle   8 NSaved=   8.
 NSaved= 8 IEnMin= 7 EnMin= -56.1655083453630     IErMin= 8 ErrMin= 5.34D-09
 ErrMax= 5.34D-09 EMaxC= 1.00D-01 BMatC= 2.09D-16 BMatP= 1.61D-14
 IDIUse=1 WtCom= 1.00D+00 WtEn= 0.00D+00
 Coeff-Com:  0.730D-04-0.179D-03-0.800D-03 0.551D-02-0.212D-01 0.806D-01
 Coeff-Com: -0.325D+00 0.126D+01
 Coeff:      0.730D-04-0.179D-03-0.800D-03 0.551D-02-0.212D-01 0.806D-01
 Coeff:     -0.325D+00 0.126D+01
 Gap=     0.621 Goal=   None    Shift=    0.000
 RMSDP=2.29D-09 MaxDP=1.35D-08 DE= 9.95D-14 OVMax= 7.17D-09

 SCF Done:  E(RHF) =  -56.1655083454     A.U. after    8 cycles
             Convg  =    0.2293D-08             -V/T =  1.9990
 KE= 5.622410499239D+01 PE=-1.561977692496D+02 EE= 3.166282535999D+01
 Leave Link  502 at Fri Mar 27 20:13:25 2020, MaxMem=   33554432 cpu:       0.0
 (Enter D:\G09W\l701.exe)
 Compute integral first derivatives.
 ... and contract with generalized density number  0.
 Leave Link  701 at Fri Mar 27 20:13:25 2020, MaxMem=   33554432 cpu:       0.0
 (Enter D:\G09W\l702.exe)
 L702 exits ... SP integral derivatives will be done elsewhere.
 Leave Link  702 at Fri Mar 27 20:13:25 2020, MaxMem=   33554432 cpu:       0.0
 (Enter D:\G09W\l703.exe)
 Compute integral first derivatives, UseDBF=F ICtDFT=           0.
 Integral derivatives from FoFDir, PRISM(SPDF).
 Calling FoFJK, ICntrl=      2127 FMM=F ISym2X=1 I1Cent= 0 IOpClX= 0 NMat=1 NMatS=1 NMatT=0.
 FoFCou: FMM=F IPFlag=           0 FMFlag=      100000 FMFlg1=         800
         NFxFlg=           0 DoJE=F BraDBF=F KetDBF=F FulRan=T
         Omega=  0.000000  0.000000  1.000000  0.000000  0.000000 ICntrl=    2127 IOpCl=  0
         NMat0=    1 NMatS0=    1 NMatT0=    0 NMatD0=    1 NMtDS0=    0 NMtDT0=    0
         I1Cent=           0 NGrid=           0.
 Petite list used in FoFCou.
 Leave Link  703 at Fri Mar 27 20:13:25 2020, MaxMem=   33554432 cpu:       0.0
 (Enter D:\G09W\l716.exe)
 Dipole        =-4.44089210D-16-2.22044605D-16-5.77576998D-01
 ***** Axes restored to original set *****
 -------------------------------------------------------------------
 Center     Atomic                   Forces (Hartrees/Bohr)
 Number     Number              X              Y              Z
 -------------------------------------------------------------------
      1        7           0.000000000    0.000000000   -0.001055076
      2        1           0.000000000   -0.000094336    0.000351692
      3        1          -0.000081698    0.000047168    0.000351692
      4        1           0.000081698    0.000047168    0.000351692
 -------------------------------------------------------------------
 Cartesian Forces:  Max     0.001055076 RMS     0.000354841
 Leave Link  716 at Fri Mar 27 20:13:25 2020, MaxMem=   33554432 cpu:       0.0
 (Enter D:\G09W\l103.exe)

 GradGradGradGradGradGradGradGradGradGradGradGradGradGradGradGradGradGrad
 Berny optimization.
 Using GEDIIS/GDIIS optimizer.
 Internal  Forces:  Max     0.000517569 RMS     0.000249389
 Search for a local minimum.
 Step number   3 out of a maximum of   20
 All quantities printed in internal units (Hartrees-Bohrs-Radians)
 RMS Force = .24939D-03 SwitMx=.10000D-02 MixMth= 2
 Mixed Optimization -- En-DIIS/RFO-DIIS
 Update second derivatives using D2CorX and points    1    2    3
 DE= -7.11D-05 DEPred=-7.38D-05 R= 9.63D-01
 SS=  1.41D+00  RLast= 3.08D-02 DXNew= 6.7109D-01 9.2499D-02
 Trust test= 9.63D-01 RLast= 3.08D-02 DXMaxT set to 3.99D-01
 The second derivative matrix:
                          R1        R2        R3        A1        A2
           R1           0.49473
           R2           0.05104   0.49473
           R3           0.05104   0.05104   0.49473
           A1          -0.03603  -0.03603  -0.03603   0.15384
           A2          -0.02290  -0.02290  -0.02290  -0.00710   0.15290
           A3          -0.02290  -0.02290  -0.02290  -0.00710  -0.00710
           D1           0.02326   0.02326   0.02326  -0.00369  -0.00170
                          A3        D1
           A3           0.15290
           D1          -0.00170   0.01148
 ITU=  1  1  0
 Use linear search instead of GDIIS.
     Eigenvalues ---    0.02607   0.16000   0.16000   0.44369   0.44369
     Eigenvalues ---    0.59701
 RFO step:  Lambda=-1.14260074D-05 EMin= 2.60714282D-02
 Quartic linear search produced a step of  0.10722.
 Iteration  1 RMS(Cart)=  0.00438061 RMS(Int)=  0.00006826
 Iteration  2 RMS(Cart)=  0.00002898 RMS(Int)=  0.00006148
 Iteration  3 RMS(Cart)=  0.00000000 RMS(Int)=  0.00006148
 ClnCor:  largest displacement from symmetrization is 1.39D-04 for atom     4.
 Variable       Old X    -DE/DX   Delta X   Delta X   Delta X     New X
                                 (Linear)    (Quad)   (Total)
    R1        1.87503  -0.00017   0.00077  -0.00119  -0.00046   1.87456
    R2        1.87503  -0.00017   0.00077  -0.00119  -0.00046   1.87456
    R3        1.87503  -0.00017   0.00077  -0.00119  -0.00046   1.87456
    A1        2.01731  -0.00001   0.00067   0.00388   0.00465   2.02196
    A2        2.01731   0.00020   0.00067   0.00417   0.00465   2.02196
    A3        2.01731   0.00020   0.00067   0.00417   0.00465   2.02196
    D1        2.43414   0.00052   0.00280   0.01743   0.02034   2.45448
         Item               Value     Threshold  Converged?
 Maximum Force            0.000518     0.000450     NO 
 RMS     Force            0.000249     0.000300     YES
 Maximum Displacement     0.009425     0.001800     NO 
 RMS     Displacement     0.004361     0.001200     NO 
 Predicted change in Energy=-6.356843D-06
 GradGradGradGradGradGradGradGradGradGradGradGradGradGradGradGradGradGrad

 Leave Link  103 at Fri Mar 27 20:13:25 2020, MaxMem=   33554432 cpu:       0.0
 (Enter D:\G09W\l202.exe)
                          Input orientation:                          
 ---------------------------------------------------------------------
 Center     Atomic      Atomic             Coordinates (Angstroms)
 Number     Number       Type             X           Y           Z
 ---------------------------------------------------------------------
      1          7           0        0.000000    0.000000    0.003666
      2          1           0        0.000000    0.970586   -0.201220
      3          1           0        0.840552   -0.485293   -0.201220
      4          1           0       -0.840552   -0.485293   -0.201220
 ---------------------------------------------------------------------
                    Distance matrix (angstroms):
                    1          2          3          4
     1  N    0.000000
     2  H    0.991976   0.000000
     3  H    0.991976   1.681105   0.000000
     4  H    0.991976   1.681105   1.681105   0.000000
 Stoichiometry    H3N
 Framework group  C3V[C3(N),3SGV(H)]
 Deg. of freedom     2
 Full point group                 C3V     NOp   6
 Largest Abelian subgroup         CS      NOp   2
 Largest concise Abelian subgroup CS      NOp   2
                         Standard orientation:                         
 ---------------------------------------------------------------------
 Center     Atomic      Atomic             Coordinates (Angstroms)
 Number     Number       Type             X           Y           Z
 ---------------------------------------------------------------------
      1          7           0        0.000000    0.000000    0.061466
      2          1           0        0.000000    0.970586   -0.143421
      3          1           0        0.840552   -0.485293   -0.143421
      4          1           0       -0.840552   -0.485293   -0.143421
 ---------------------------------------------------------------------
 Rotational constants (GHZ):    330.6378286    330.6378286    177.4362844
 Leave Link  202 at Fri Mar 27 20:13:26 2020, MaxMem=   33554432 cpu:       0.0
 (Enter D:\G09W\l301.exe)
 Standard basis: 6-31G (6D, 7F)
 Ernie: Thresh=  0.10000D-02 Tol=  0.10000D-05 Strict=F.
 There are    11 symmetry adapted basis functions of A'  symmetry.
 There are     4 symmetry adapted basis functions of A"  symmetry.
 Integral buffers will be    262144 words long.
 Raffenetti 1 integral format.
 Two-electron integral symmetry is turned on.
    15 basis functions,    34 primitive gaussians,    15 cartesian basis functions
     5 alpha electrons        5 beta electrons
       nuclear repulsion energy        12.1469491414 Hartrees.
 IExCor=    0 DFT=F Ex=HF Corr=None ExCW=0 ScaHFX=  1.000000
 ScaDFX=  1.000000  1.000000  1.000000  1.000000 ScalE2=  1.000000  1.000000
 IRadAn=      0 IRanWt=     -1 IRanGd=            0 ICorTp=0
 NAtoms=    4 NActive=    4 NUniq=    2 SFac= 4.00D+00 NAtFMM=   50 NAOKFM=F Big=F
 Leave Link  301 at Fri Mar 27 20:13:26 2020, MaxMem=   33554432 cpu:       0.0
 (Enter D:\G09W\l302.exe)
 NPDir=0 NMtPBC=     1 NCelOv=     1 NCel=       1 NClECP=     1 NCelD=      1
         NCelK=      1 NCelE2=     1 NClLst=     1 CellRange=     0.0.
 One-electron integrals computed using PRISM.
 One-electron integral symmetry used in STVInt
 NBasis=    15 RedAO= T  NBF=    11     4
 NBsUse=    15 1.00D-06 NBFU=    11     4
 Leave Link  302 at Fri Mar 27 20:13:26 2020, MaxMem=   33554432 cpu:       0.0
 (Enter D:\G09W\l303.exe)
 DipDrv:  MaxL=1.
 Leave Link  303 at Fri Mar 27 20:13:26 2020, MaxMem=   33554432 cpu:       0.0
 (Enter D:\G09W\l401.exe)
 Initial guess read from the read-write file.
 B after Tr=     0.000000    0.000000    0.000000
         Rot=    1.000000    0.000000    0.000000    0.000000 Ang=   0.00 deg.
 Guess basis will be translated and rotated to current coordinates.
 Initial guess orbital symmetries:
       Occupied  (A1) (A1) (E) (E) (A1)
       Virtual   (A1) (E) (E) (E) (E) (A1) (A1) (E) (E) (A1)
 The electronic state of the initial guess is 1-A1.
 Leave Link  401 at Fri Mar 27 20:13:26 2020, MaxMem=   33554432 cpu:       0.0
 (Enter D:\G09W\l502.exe)
 Closed shell SCF:
 Requested convergence on RMS density matrix=1.00D-08 within 128 cycles.
 Requested convergence on MAX density matrix=1.00D-06.
 Requested convergence on             energy=1.00D-06.
 No special actions if energy rises.
 Using DIIS extrapolation, IDIIS=  1040.
 Integral symmetry usage will be decided dynamically.
 Keep R1 ints in memory in canonical form, NReq=827020.
 IEnd=       19746 IEndB=       19746 NGot=    33554432 MDV=    33544501
 LenX=    33544501 LenY=    33543619
 Symmetry not used in FoFDir.
 MinBra= 0 MaxBra= 1 Meth= 1.
 IRaf=       0 NMat=   1 IRICut=       1 DoRegI=T DoRafI=F ISym2E= 0 JSym2E=0.

 Cycle   1  Pass 1  IDiag  1:
 E= -56.1655067596858    
 DIIS: error= 7.92D-04 at cycle   1 NSaved=   1.
 NSaved= 1 IEnMin= 1 EnMin= -56.1655067596858     IErMin= 1 ErrMin= 7.92D-04
 ErrMax= 7.92D-04 EMaxC= 1.00D-01 BMatC= 6.04D-06 BMatP= 6.04D-06
 IDIUse=3 WtCom= 9.92D-01 WtEn= 7.92D-03
 Coeff-Com:  0.100D+01
 Coeff-En:   0.100D+01
 Coeff:      0.100D+01
 Gap=     0.620 Goal=   None    Shift=    0.000
 RMSDP=2.09D-04 MaxDP=7.24D-04              OVMax= 7.05D-04

 Cycle   2  Pass 1  IDiag  1:
 E= -56.1655166356806     Delta-E=       -0.000009875995 Rises=F Damp=F
 DIIS: error= 1.83D-04 at cycle   2 NSaved=   2.
 NSaved= 2 IEnMin= 2 EnMin= -56.1655166356806     IErMin= 2 ErrMin= 1.83D-04
 ErrMax= 1.83D-04 EMaxC= 1.00D-01 BMatC= 4.80D-07 BMatP= 6.04D-06
 IDIUse=3 WtCom= 9.98D-01 WtEn= 1.83D-03
 Coeff-Com: -0.261D+00 0.126D+01
 Coeff-En:   0.000D+00 0.100D+01
 Coeff:     -0.261D+00 0.126D+01
 Gap=     0.620 Goal=   None    Shift=    0.000
 RMSDP=9.13D-05 MaxDP=3.58D-04 DE=-9.88D-06 OVMax= 4.69D-04

 Cycle   3  Pass 1  IDiag  1:
 E= -56.1655175781417     Delta-E=       -0.000000942461 Rises=F Damp=F
 DIIS: error= 6.88D-05 at cycle   3 NSaved=   3.
 NSaved= 3 IEnMin= 3 EnMin= -56.1655175781417     IErMin= 3 ErrMin= 6.88D-05
 ErrMax= 6.88D-05 EMaxC= 1.00D-01 BMatC= 4.73D-08 BMatP= 4.80D-07
 IDIUse=1 WtCom= 1.00D+00 WtEn= 0.00D+00
 Coeff-Com: -0.100D+00 0.327D+00 0.773D+00
 Coeff:     -0.100D+00 0.327D+00 0.773D+00
 Gap=     0.620 Goal=   None    Shift=    0.000
 RMSDP=2.34D-05 MaxDP=1.08D-04 DE=-9.42D-07 OVMax= 1.37D-04

 Cycle   4  Pass 1  IDiag  1:
 E= -56.1655176549270     Delta-E=       -0.000000076785 Rises=F Damp=F
 DIIS: error= 1.89D-05 at cycle   4 NSaved=   4.
 NSaved= 4 IEnMin= 4 EnMin= -56.1655176549270     IErMin= 4 ErrMin= 1.89D-05
 ErrMax= 1.89D-05 EMaxC= 1.00D-01 BMatC= 4.18D-09 BMatP= 4.73D-08
 IDIUse=1 WtCom= 1.00D+00 WtEn= 0.00D+00
 Coeff-Com:  0.740D-01-0.293D+00-0.316D+00 0.153D+01
 Coeff:      0.740D-01-0.293D+00-0.316D+00 0.153D+01
 Gap=     0.620 Goal=   None    Shift=    0.000
 RMSDP=2.31D-05 MaxDP=1.19D-04 DE=-7.68D-08 OVMax= 1.43D-04

 Cycle   5  Pass 1  IDiag  1:
 E= -56.1655176731664     Delta-E=       -0.000000018239 Rises=F Damp=F
 DIIS: error= 2.63D-06 at cycle   5 NSaved=   5.
 NSaved= 5 IEnMin= 5 EnMin= -56.1655176731664     IErMin= 5 ErrMin= 2.63D-06
 ErrMax= 2.63D-06 EMaxC= 1.00D-01 BMatC= 5.69D-11 BMatP= 4.18D-09
 IDIUse=1 WtCom= 1.00D+00 WtEn= 0.00D+00
 Coeff-Com: -0.225D-01 0.905D-01 0.826D-01-0.512D+00 0.136D+01
 Coeff:     -0.225D-01 0.905D-01 0.826D-01-0.512D+00 0.136D+01
 Gap=     0.620 Goal=   None    Shift=    0.000
 RMSDP=2.72D-06 MaxDP=1.43D-05 DE=-1.82D-08 OVMax= 1.59D-05

 Cycle   6  Pass 1  IDiag  1:
 E= -56.1655176734064     Delta-E=       -0.000000000240 Rises=F Damp=F
 DIIS: error= 4.26D-07 at cycle   6 NSaved=   6.
 NSaved= 6 IEnMin= 6 EnMin= -56.1655176734064     IErMin= 6 ErrMin= 4.26D-07
 ErrMax= 4.26D-07 EMaxC= 1.00D-01 BMatC= 1.45D-12 BMatP= 5.69D-11
 IDIUse=1 WtCom= 1.00D+00 WtEn= 0.00D+00
 Coeff-Com:  0.447D-02-0.182D-01-0.170D-01 0.109D+00-0.401D+00 0.132D+01
 Coeff:      0.447D-02-0.182D-01-0.170D-01 0.109D+00-0.401D+00 0.132D+01
 Gap=     0.620 Goal=   None    Shift=    0.000
 RMSDP=2.26D-07 MaxDP=1.15D-06 DE=-2.40D-10 OVMax= 1.26D-06

 Cycle   7  Pass 1  IDiag  1:
 E= -56.1655176734104     Delta-E=       -0.000000000004 Rises=F Damp=F
 DIIS: error= 5.69D-08 at cycle   7 NSaved=   7.
 NSaved= 7 IEnMin= 7 EnMin= -56.1655176734104     IErMin= 7 ErrMin= 5.69D-08
 ErrMax= 5.69D-08 EMaxC= 1.00D-01 BMatC= 3.37D-14 BMatP= 1.45D-12
 IDIUse=1 WtCom= 1.00D+00 WtEn= 0.00D+00
 Coeff-Com: -0.796D-03 0.326D-02 0.333D-02-0.205D-01 0.920D-01-0.416D+00
 Coeff-Com:  0.134D+01
 Coeff:     -0.796D-03 0.326D-02 0.333D-02-0.205D-01 0.920D-01-0.416D+00
 Coeff:      0.134D+01
 Gap=     0.620 Goal=   None    Shift=    0.000
 RMSDP=2.98D-08 MaxDP=2.03D-07 DE=-4.05D-12 OVMax= 8.37D-08

 Cycle   8  Pass 1  IDiag  1:
 E= -56.1655176734106     Delta-E=        0.000000000000 Rises=F Damp=F
 DIIS: error= 4.83D-09 at cycle   8 NSaved=   8.
 NSaved= 8 IEnMin= 8 EnMin= -56.1655176734106     IErMin= 8 ErrMin= 4.83D-09
 ErrMax= 4.83D-09 EMaxC= 1.00D-01 BMatC= 3.83D-16 BMatP= 3.37D-14
 IDIUse=1 WtCom= 1.00D+00 WtEn= 0.00D+00
 Coeff-Com:  0.155D-03-0.637D-03-0.637D-03 0.398D-02-0.194D-01 0.956D-01
 Coeff-Com: -0.368D+00 0.129D+01
 Coeff:      0.155D-03-0.637D-03-0.637D-03 0.398D-02-0.194D-01 0.956D-01
 Coeff:     -0.368D+00 0.129D+01
 Gap=     0.620 Goal=   None    Shift=    0.000
 RMSDP=2.25D-09 MaxDP=1.28D-08 DE=-1.99D-13 OVMax= 8.47D-09

 SCF Done:  E(RHF) =  -56.1655176734     A.U. after    8 cycles
             Convg  =    0.2249D-08             -V/T =  1.9990
 KE= 5.622374773772D+01 PE=-1.562032210460D+02 EE= 3.166700649343D+01
 Leave Link  502 at Fri Mar 27 20:13:26 2020, MaxMem=   33554432 cpu:       0.0
 (Enter D:\G09W\l701.exe)
 Compute integral first derivatives.
 ... and contract with generalized density number  0.
 Leave Link  701 at Fri Mar 27 20:13:26 2020, MaxMem=   33554432 cpu:       0.0
 (Enter D:\G09W\l702.exe)
 L702 exits ... SP integral derivatives will be done elsewhere.
 Leave Link  702 at Fri Mar 27 20:13:26 2020, MaxMem=   33554432 cpu:       0.0
 (Enter D:\G09W\l703.exe)
 Compute integral first derivatives, UseDBF=F ICtDFT=           0.
 Integral derivatives from FoFDir, PRISM(SPDF).
 Calling FoFJK, ICntrl=      2127 FMM=F ISym2X=1 I1Cent= 0 IOpClX= 0 NMat=1 NMatS=1 NMatT=0.
 FoFCou: FMM=F IPFlag=           0 FMFlag=      100000 FMFlg1=         800
         NFxFlg=           0 DoJE=F BraDBF=F KetDBF=F FulRan=T
         Omega=  0.000000  0.000000  1.000000  0.000000  0.000000 ICntrl=    2127 IOpCl=  0
         NMat0=    1 NMatS0=    1 NMatT0=    0 NMatD0=    1 NMtDS0=    0 NMtDT0=    0
         I1Cent=           0 NGrid=           0.
 Petite list used in FoFCou.
 Leave Link  703 at Fri Mar 27 20:13:26 2020, MaxMem=   33554432 cpu:       0.0
 (Enter D:\G09W\l716.exe)
 Dipole        =-4.44089210D-16 2.22044605D-16-5.61497329D-01
 ***** Axes restored to original set *****
 -------------------------------------------------------------------
 Center     Atomic                   Forces (Hartrees/Bohr)
 Number     Number              X              Y              Z
 -------------------------------------------------------------------
      1        7           0.000000000    0.000000000   -0.000612945
      2        1           0.000000000   -0.000236835    0.000204315
      3        1          -0.000205105    0.000118417    0.000204315
      4        1           0.000205105    0.000118417    0.000204315
 -------------------------------------------------------------------
 Cartesian Forces:  Max     0.000612945 RMS     0.000236151
 Leave Link  716 at Fri Mar 27 20:13:26 2020, MaxMem=   33554432 cpu:       0.0
 (Enter D:\G09W\l103.exe)

 GradGradGradGradGradGradGradGradGradGradGradGradGradGradGradGradGradGrad
 Berny optimization.
 Using GEDIIS/GDIIS optimizer.
 Internal  Forces:  Max     0.000273928 RMS     0.000207285
 Search for a local minimum.
 Step number   4 out of a maximum of   20
 All quantities printed in internal units (Hartrees-Bohrs-Radians)
 RMS Force = .20728D-03 SwitMx=.10000D-02 MixMth= 2
 Mixed Optimization -- En-DIIS/RFO-DIIS
 Swaping is turned off.
 Update second derivatives using D2CorX and points    1    2    3    4
 DE= -9.33D-06 DEPred=-6.36D-06 R= 1.47D+00
 SS=  1.41D+00  RLast= 2.19D-02 DXNew= 6.7109D-01 6.5664D-02
 Trust test= 1.47D+00 RLast= 2.19D-02 DXMaxT set to 3.99D-01
 The second derivative matrix:
                          R1        R2        R3        A1        A2
           R1           0.50171
           R2           0.05801   0.50171
           R3           0.05801   0.05801   0.50171
           A1          -0.03278  -0.03278  -0.03278   0.12425
           A2          -0.01572  -0.01572  -0.01572  -0.03821   0.12252
           A3          -0.01572  -0.01572  -0.01572  -0.03821  -0.03748
           D1           0.03397   0.03397   0.03397  -0.01332  -0.00625
                          A3        D1
           A3           0.12252
           D1          -0.00625   0.02175
 ITU=  1  1  1  0
     Eigenvalues ---    0.01326   0.15971   0.16000   0.44369   0.44369
     Eigenvalues ---    0.61986
 En-DIIS/RFO-DIIS IScMMF=        0 using points:     4    3
 RFO step:  Lambda=-9.97902030D-07.
 DidBck=F Rises=F RFO-DIIS coefs:    1.94992   -0.94992
 Iteration  1 RMS(Cart)=  0.00417915 RMS(Int)=  0.00010284
 Iteration  2 RMS(Cart)=  0.00002878 RMS(Int)=  0.00009861
 Iteration  3 RMS(Cart)=  0.00000000 RMS(Int)=  0.00009861
 ClnCor:  largest displacement from symmetrization is 1.68D-05 for atom     4.
 Variable       Old X    -DE/DX   Delta X   Delta X   Delta X     New X
                                  (DIIS)     (GDIIS)  (Total)
    R1        1.87456  -0.00027  -0.00044  -0.00063  -0.00107   1.87349
    R2        1.87456  -0.00027  -0.00044  -0.00063  -0.00107   1.87349
    R3        1.87456  -0.00027  -0.00044  -0.00063  -0.00107   1.87349
    A1        2.02196   0.00000   0.00441   0.00014   0.00441   2.02637
    A2        2.02196   0.00009   0.00441   0.00014   0.00441   2.02637
    A3        2.02196   0.00009   0.00441   0.00014   0.00441   2.02637
    D1        2.45448   0.00024   0.01932   0.00062   0.02004   2.47451
         Item               Value     Threshold  Converged?
 Maximum Force            0.000274     0.000450     YES
 RMS     Force            0.000207     0.000300     YES
 Maximum Displacement     0.009302     0.001800     NO 
 RMS     Displacement     0.004173     0.001200     NO 
 Predicted change in Energy=-3.280170D-06
 GradGradGradGradGradGradGradGradGradGradGradGradGradGradGradGradGradGrad

 Leave Link  103 at Fri Mar 27 20:13:26 2020, MaxMem=   33554432 cpu:       0.0
 (Enter D:\G09W\l202.exe)
                          Input orientation:                          
 ---------------------------------------------------------------------
 Center     Atomic      Atomic             Coordinates (Angstroms)
 Number     Number       Type             X           Y           Z
 ---------------------------------------------------------------------
      1          7           0        0.000000    0.000000   -0.001256
      2          1           0        0.000000    0.971370   -0.199580
      3          1           0        0.841231   -0.485685   -0.199580
      4          1           0       -0.841231   -0.485685   -0.199580
 ---------------------------------------------------------------------
                    Distance matrix (angstroms):
                    1          2          3          4
     1  N    0.000000
     2  H    0.991409   0.000000
     3  H    0.991409   1.682461   0.000000
     4  H    0.991409   1.682461   1.682461   0.000000
 Stoichiometry    H3N
 Framework group  C3V[C3(N),3SGV(H)]
 Deg. of freedom     2
 Full point group                 C3V     NOp   6
 Largest Abelian subgroup         CS      NOp   2
 Largest concise Abelian subgroup CS      NOp   2
                         Standard orientation:                         
 ---------------------------------------------------------------------
 Center     Atomic      Atomic             Coordinates (Angstroms)
 Number     Number       Type             X           Y           Z
 ---------------------------------------------------------------------
      1          7           0        0.000000    0.000000    0.059497
      2          1           0        0.000000    0.971370   -0.138827
      3          1           0        0.841231   -0.485685   -0.138827
      4          1           0       -0.841231   -0.485685   -0.138827
 ---------------------------------------------------------------------
 Rotational constants (GHZ):    331.5663667    331.5663667    177.1502807
 Leave Link  202 at Fri Mar 27 20:13:26 2020, MaxMem=   33554432 cpu:       0.0
 (Enter D:\G09W\l301.exe)
 Standard basis: 6-31G (6D, 7F)
 Ernie: Thresh=  0.10000D-02 Tol=  0.10000D-05 Strict=F.
 There are    11 symmetry adapted basis functions of A'  symmetry.
 There are     4 symmetry adapted basis functions of A"  symmetry.
 Integral buffers will be    262144 words long.
 Raffenetti 1 integral format.
 Two-electron integral symmetry is turned on.
    15 basis functions,    34 primitive gaussians,    15 cartesian basis functions
     5 alpha electrons        5 beta electrons
       nuclear repulsion energy        12.1525981178 Hartrees.
 IExCor=    0 DFT=F Ex=HF Corr=None ExCW=0 ScaHFX=  1.000000
 ScaDFX=  1.000000  1.000000  1.000000  1.000000 ScalE2=  1.000000  1.000000
 IRadAn=      0 IRanWt=     -1 IRanGd=            0 ICorTp=0
 NAtoms=    4 NActive=    4 NUniq=    2 SFac= 4.00D+00 NAtFMM=   50 NAOKFM=F Big=F
 Leave Link  301 at Fri Mar 27 20:13:26 2020, MaxMem=   33554432 cpu:       0.0
 (Enter D:\G09W\l302.exe)
 NPDir=0 NMtPBC=     1 NCelOv=     1 NCel=       1 NClECP=     1 NCelD=      1
         NCelK=      1 NCelE2=     1 NClLst=     1 CellRange=     0.0.
 One-electron integrals computed using PRISM.
 One-electron integral symmetry used in STVInt
 NBasis=    15 RedAO= T  NBF=    11     4
 NBsUse=    15 1.00D-06 NBFU=    11     4
 Leave Link  302 at Fri Mar 27 20:13:26 2020, MaxMem=   33554432 cpu:       0.0
 (Enter D:\G09W\l303.exe)
 DipDrv:  MaxL=1.
 Leave Link  303 at Fri Mar 27 20:13:26 2020, MaxMem=   33554432 cpu:       0.0
 (Enter D:\G09W\l401.exe)
 Initial guess read from the read-write file.
 B after Tr=     0.000000    0.000000    0.000000
         Rot=    1.000000    0.000000    0.000000    0.000000 Ang=   0.00 deg.
 Guess basis will be translated and rotated to current coordinates.
 Initial guess orbital symmetries:
       Occupied  (A1) (A1) (E) (E) (A1)
       Virtual   (A1) (E) (E) (E) (E) (A1) (A1) (E) (E) (A1)
 The electronic state of the initial guess is 1-A1.
 Leave Link  401 at Fri Mar 27 20:13:27 2020, MaxMem=   33554432 cpu:       0.0
 (Enter D:\G09W\l502.exe)
 Closed shell SCF:
 Requested convergence on RMS density matrix=1.00D-08 within 128 cycles.
 Requested convergence on MAX density matrix=1.00D-06.
 Requested convergence on             energy=1.00D-06.
 No special actions if energy rises.
 Using DIIS extrapolation, IDIIS=  1040.
 Integral symmetry usage will be decided dynamically.
 Keep R1 ints in memory in canonical form, NReq=827020.
 IEnd=       19746 IEndB=       19746 NGot=    33554432 MDV=    33544501
 LenX=    33544501 LenY=    33543619
 Symmetry not used in FoFDir.
 MinBra= 0 MaxBra= 1 Meth= 1.
 IRaf=       0 NMat=   1 IRICut=       1 DoRegI=T DoRafI=F ISym2E= 0 JSym2E=0.

 Cycle   1  Pass 1  IDiag  1:
 E= -56.1655101917491    
 DIIS: error= 7.75D-04 at cycle   1 NSaved=   1.
 NSaved= 1 IEnMin= 1 EnMin= -56.1655101917491     IErMin= 1 ErrMin= 7.75D-04
 ErrMax= 7.75D-04 EMaxC= 1.00D-01 BMatC= 6.14D-06 BMatP= 6.14D-06
 IDIUse=3 WtCom= 9.92D-01 WtEn= 7.75D-03
 Coeff-Com:  0.100D+01
 Coeff-En:   0.100D+01
 Coeff:      0.100D+01
 Gap=     0.620 Goal=   None    Shift=    0.000
 RMSDP=2.12D-04 MaxDP=7.62D-04              OVMax= 7.33D-04

 Cycle   2  Pass 1  IDiag  1:
 E= -56.1655201342914     Delta-E=       -0.000009942542 Rises=F Damp=F
 DIIS: error= 2.08D-04 at cycle   2 NSaved=   2.
 NSaved= 2 IEnMin= 2 EnMin= -56.1655201342914     IErMin= 2 ErrMin= 2.08D-04
 ErrMax= 2.08D-04 EMaxC= 1.00D-01 BMatC= 5.36D-07 BMatP= 6.14D-06
 IDIUse=3 WtCom= 9.98D-01 WtEn= 2.08D-03
 Coeff-Com: -0.195D+00 0.120D+01
 Coeff-En:   0.000D+00 0.100D+01
 Coeff:     -0.195D+00 0.120D+01
 Gap=     0.620 Goal=   None    Shift=    0.000
 RMSDP=8.80D-05 MaxDP=3.77D-04 DE=-9.94D-06 OVMax= 4.47D-04

 Cycle   3  Pass 1  IDiag  1:
 E= -56.1655210810919     Delta-E=       -0.000000946801 Rises=F Damp=F
 DIIS: error= 8.32D-05 at cycle   3 NSaved=   3.
 NSaved= 3 IEnMin= 3 EnMin= -56.1655210810919     IErMin= 3 ErrMin= 8.32D-05
 ErrMax= 8.32D-05 EMaxC= 1.00D-01 BMatC= 7.77D-08 BMatP= 5.36D-07
 IDIUse=1 WtCom= 1.00D+00 WtEn= 0.00D+00
 Coeff-Com: -0.109D+00 0.327D+00 0.782D+00
 Coeff:     -0.109D+00 0.327D+00 0.782D+00
 Gap=     0.620 Goal=   None    Shift=    0.000
 RMSDP=2.78D-05 MaxDP=1.28D-04 DE=-9.47D-07 OVMax= 1.61D-04

 Cycle   4  Pass 1  IDiag  1:
 E= -56.1655211963639     Delta-E=       -0.000000115272 Rises=F Damp=F
 DIIS: error= 1.93D-05 at cycle   4 NSaved=   4.
 NSaved= 4 IEnMin= 4 EnMin= -56.1655211963639     IErMin= 4 ErrMin= 1.93D-05
 ErrMax= 1.93D-05 EMaxC= 1.00D-01 BMatC= 4.22D-09 BMatP= 7.77D-08
 IDIUse=1 WtCom= 1.00D+00 WtEn= 0.00D+00
 Coeff-Com:  0.721D-01-0.264D+00-0.390D+00 0.158D+01
 Coeff:      0.721D-01-0.264D+00-0.390D+00 0.158D+01
 Gap=     0.620 Goal=   None    Shift=    0.000
 RMSDP=2.37D-05 MaxDP=1.22D-04 DE=-1.15D-07 OVMax= 1.47D-04

 Cycle   5  Pass 1  IDiag  1:
 E= -56.1655212156167     Delta-E=       -0.000000019253 Rises=F Damp=F
 DIIS: error= 2.67D-06 at cycle   5 NSaved=   5.
 NSaved= 5 IEnMin= 5 EnMin= -56.1655212156167     IErMin= 5 ErrMin= 2.67D-06
 ErrMax= 2.67D-06 EMaxC= 1.00D-01 BMatC= 6.04D-11 BMatP= 4.22D-09
 IDIUse=1 WtCom= 1.00D+00 WtEn= 0.00D+00
 Coeff-Com: -0.219D-01 0.814D-01 0.112D+00-0.539D+00 0.137D+01
 Coeff:     -0.219D-01 0.814D-01 0.112D+00-0.539D+00 0.137D+01
 Gap=     0.620 Goal=   None    Shift=    0.000
 RMSDP=2.89D-06 MaxDP=1.54D-05 DE=-1.93D-08 OVMax= 1.69D-05

 Cycle   6  Pass 1  IDiag  1:
 E= -56.1655212158810     Delta-E=       -0.000000000264 Rises=F Damp=F
 DIIS: error= 4.63D-07 at cycle   6 NSaved=   6.
 NSaved= 6 IEnMin= 6 EnMin= -56.1655212158810     IErMin= 6 ErrMin= 4.63D-07
 ErrMax= 4.63D-07 EMaxC= 1.00D-01 BMatC= 1.65D-12 BMatP= 6.04D-11
 IDIUse=1 WtCom= 1.00D+00 WtEn= 0.00D+00
 Coeff-Com:  0.434D-02-0.162D-01-0.232D-01 0.116D+00-0.407D+00 0.133D+01
 Coeff:      0.434D-02-0.162D-01-0.232D-01 0.116D+00-0.407D+00 0.133D+01
 Gap=     0.620 Goal=   None    Shift=    0.000
 RMSDP=2.39D-07 MaxDP=1.23D-06 DE=-2.64D-10 OVMax= 1.32D-06

 Cycle   7  Pass 1  IDiag  1:
 E= -56.1655212158855     Delta-E=       -0.000000000005 Rises=F Damp=F
 DIIS: error= 5.67D-08 at cycle   7 NSaved=   7.
 NSaved= 7 IEnMin= 7 EnMin= -56.1655212158855     IErMin= 7 ErrMin= 5.67D-08
 ErrMax= 5.67D-08 EMaxC= 1.00D-01 BMatC= 3.82D-14 BMatP= 1.65D-12
 IDIUse=1 WtCom= 1.00D+00 WtEn= 0.00D+00
 Coeff-Com: -0.762D-03 0.285D-02 0.439D-02-0.214D-01 0.907D-01-0.411D+00
 Coeff-Com:  0.134D+01
 Coeff:     -0.762D-03 0.285D-02 0.439D-02-0.214D-01 0.907D-01-0.411D+00
 Coeff:      0.134D+01
 Gap=     0.620 Goal=   None    Shift=    0.000
 RMSDP=2.96D-08 MaxDP=2.10D-07 DE=-4.50D-12 OVMax= 8.61D-08

 Cycle   8  Pass 1  IDiag  1:
 E= -56.1655212158856     Delta-E=        0.000000000000 Rises=F Damp=F
 DIIS: error= 5.21D-09 at cycle   8 NSaved=   8.
 NSaved= 8 IEnMin= 8 EnMin= -56.1655212158856     IErMin= 8 ErrMin= 5.21D-09
 ErrMax= 5.21D-09 EMaxC= 1.00D-01 BMatC= 4.25D-16 BMatP= 3.82D-14
 IDIUse=1 WtCom= 1.00D+00 WtEn= 0.00D+00
 Coeff-Com:  0.168D-03-0.632D-03-0.959D-03 0.472D-02-0.213D-01 0.104D+00
 Coeff-Com: -0.392D+00 0.131D+01
 Coeff:      0.168D-03-0.632D-03-0.959D-03 0.472D-02-0.213D-01 0.104D+00
 Coeff:     -0.392D+00 0.131D+01
 Gap=     0.620 Goal=   None    Shift=    0.000
 RMSDP=2.41D-09 MaxDP=1.26D-08 DE=-2.84D-14 OVMax= 9.21D-09

 SCF Done:  E(RHF) =  -56.1655212159     A.U. after    8 cycles
             Convg  =    0.2408D-08             -V/T =  1.9989
 KE= 5.622526949014D+01 PE=-1.562176663133D+02 EE= 3.167427748947D+01
 Leave Link  502 at Fri Mar 27 20:13:27 2020, MaxMem=   33554432 cpu:       0.0
 (Enter D:\G09W\l701.exe)
 Compute integral first derivatives.
 ... and contract with generalized density number  0.
 Leave Link  701 at Fri Mar 27 20:13:27 2020, MaxMem=   33554432 cpu:       0.0
 (Enter D:\G09W\l702.exe)
 L702 exits ... SP integral derivatives will be done elsewhere.
 Leave Link  702 at Fri Mar 27 20:13:27 2020, MaxMem=   33554432 cpu:       0.0
 (Enter D:\G09W\l703.exe)
 Compute integral first derivatives, UseDBF=F ICtDFT=           0.
 Integral derivatives from FoFDir, PRISM(SPDF).
 Calling FoFJK, ICntrl=      2127 FMM=F ISym2X=1 I1Cent= 0 IOpClX= 0 NMat=1 NMatS=1 NMatT=0.
 FoFCou: FMM=F IPFlag=           0 FMFlag=      100000 FMFlg1=         800
         NFxFlg=           0 DoJE=F BraDBF=F KetDBF=F FulRan=T
         Omega=  0.000000  0.000000  1.000000  0.000000  0.000000 ICntrl=    2127 IOpCl=  0
         NMat0=    1 NMatS0=    1 NMatT0=    0 NMatD0=    1 NMtDS0=    0 NMtDT0=    0
         I1Cent=           0 NGrid=           0.
 Petite list used in FoFCou.
 Leave Link  703 at Fri Mar 27 20:13:27 2020, MaxMem=   33554432 cpu:       0.0
 (Enter D:\G09W\l716.exe)
 Dipole        =-2.22044605D-16-3.33066907D-16-5.45567028D-01
 ***** Axes restored to original set *****
 -------------------------------------------------------------------
 Center     Atomic                   Forces (Hartrees/Bohr)
 Number     Number              X              Y              Z
 -------------------------------------------------------------------
      1        7           0.000000000    0.000000000   -0.000062377
      2        1           0.000000000   -0.000029398    0.000020792
      3        1          -0.000025459    0.000014699    0.000020792
      4        1           0.000025459    0.000014699    0.000020792
 -------------------------------------------------------------------
 Cartesian Forces:  Max     0.000062377 RMS     0.000025463
 Leave Link  716 at Fri Mar 27 20:13:27 2020, MaxMem=   33554432 cpu:       0.0
 (Enter D:\G09W\l103.exe)

 GradGradGradGradGradGradGradGradGradGradGradGradGradGradGradGradGradGrad
 Berny optimization.
 Using GEDIIS/GDIIS optimizer.
 Internal  Forces:  Max     0.000032963 RMS     0.000023748
 Search for a local minimum.
 Step number   5 out of a maximum of   20
 All quantities printed in internal units (Hartrees-Bohrs-Radians)
 RMS Force = .23748D-04 SwitMx=.10000D-02 MixMth= 2
 Mixed Optimization -- En-DIIS/RFO-DIIS
 Swaping is turned off.
 Update second derivatives using D2CorX and points    1    2    3    4    5
 DE= -3.54D-06 DEPred=-3.28D-06 R= 1.08D+00
 SS=  1.41D+00  RLast= 2.15D-02 DXNew= 6.7109D-01 6.4571D-02
 Trust test= 1.08D+00 RLast= 2.15D-02 DXMaxT set to 3.99D-01
 The second derivative matrix:
                          R1        R2        R3        A1        A2
           R1           0.47430
           R2           0.03061   0.47430
           R3           0.03061   0.03061   0.47430
           A1          -0.00188  -0.00188  -0.00188   0.11902
           A2           0.00457   0.00457   0.00457  -0.04102   0.12084
           A3           0.00457   0.00457   0.00457  -0.04102  -0.03916
           D1           0.01503   0.01503   0.01503  -0.00863  -0.00404
                          A3        D1
           A3           0.12084
           D1          -0.00404   0.01702
 ITU=  1  1  1  1  0
     Eigenvalues ---    0.01196   0.15978   0.16000   0.44369   0.44369
     Eigenvalues ---    0.53711
 En-DIIS/RFO-DIIS IScMMF=        0 using points:     5    4    3
 RFO step:  Lambda=-1.15243701D-08.
 DidBck=F Rises=F RFO-DIIS coefs:    1.12877   -0.14690    0.01813
 Iteration  1 RMS(Cart)=  0.00045775 RMS(Int)=  0.00000421
 Iteration  2 RMS(Cart)=  0.00000035 RMS(Int)=  0.00000419
 ClnCor:  largest displacement from symmetrization is 1.18D-07 for atom     4.
 Variable       Old X    -DE/DX   Delta X   Delta X   Delta X     New X
                                  (DIIS)     (GDIIS)  (Total)
    R1        1.87349  -0.00003  -0.00013   0.00000  -0.00013   1.87336
    R2        1.87349  -0.00003  -0.00013   0.00000  -0.00013   1.87336
    R3        1.87349  -0.00003  -0.00013   0.00000  -0.00013   1.87336
    A1        2.02637   0.00000   0.00048   0.00000   0.00048   2.02684
    A2        2.02637   0.00001   0.00048   0.00000   0.00048   2.02684
    A3        2.02637   0.00001   0.00048   0.00000   0.00048   2.02684
    D1        2.47451   0.00002   0.00221   0.00000   0.00222   2.47673
         Item               Value     Threshold  Converged?
 Maximum Force            0.000033     0.000450     YES
 RMS     Force            0.000024     0.000300     YES
 Maximum Displacement     0.001026     0.001800     YES
 RMS     Displacement     0.000458     0.001200     YES
 Predicted change in Energy=-3.557610D-08
 Optimization completed.
    -- Stationary point found.
                           ----------------------------
                           !   Optimized Parameters   !
                           ! (Angstroms and Degrees)  !
 --------------------------                            --------------------------
 ! Name  Definition              Value          Derivative Info.                !
 --------------------------------------------------------------------------------
 ! R1    R(1,2)                  0.9914         -DE/DX =    0.0                 !
 ! R2    R(1,3)                  0.9914         -DE/DX =    0.0                 !
 ! R3    R(1,4)                  0.9914         -DE/DX =    0.0                 !
 ! A1    A(2,1,3)              116.1022         -DE/DX =    0.0                 !
 ! A2    A(2,1,4)              116.1022         -DE/DX =    0.0                 !
 ! A3    A(3,1,4)              116.1022         -DE/DX =    0.0                 !
 ! D1    D(2,1,4,3)            141.7792         -DE/DX =    0.0                 !
 --------------------------------------------------------------------------------
 GradGradGradGradGradGradGradGradGradGradGradGradGradGradGradGradGradGrad

 Largest change from initial coordinates is atom    4       0.029 Angstoms.
 Leave Link  103 at Fri Mar 27 20:13:27 2020, MaxMem=   33554432 cpu:       0.0
 (Enter D:\G09W\l202.exe)
                          Input orientation:                          
 ---------------------------------------------------------------------
 Center     Atomic      Atomic             Coordinates (Angstroms)
 Number     Number       Type             X           Y           Z
 ---------------------------------------------------------------------
      1          7           0        0.000000    0.000000   -0.001256
      2          1           0        0.000000    0.971370   -0.199580
      3          1           0        0.841231   -0.485685   -0.199580
      4          1           0       -0.841231   -0.485685   -0.199580
 ---------------------------------------------------------------------
                    Distance matrix (angstroms):
                    1          2          3          4
     1  N    0.000000
     2  H    0.991409   0.000000
     3  H    0.991409   1.682461   0.000000
     4  H    0.991409   1.682461   1.682461   0.000000
 Stoichiometry    H3N
 Framework group  C3V[C3(N),3SGV(H)]
 Deg. of freedom     2
 Full point group                 C3V     NOp   6
 Largest Abelian subgroup         CS      NOp   2
 Largest concise Abelian subgroup CS      NOp   2
                         Standard orientation:                         
 ---------------------------------------------------------------------
 Center     Atomic      Atomic             Coordinates (Angstroms)
 Number     Number       Type             X           Y           Z
 ---------------------------------------------------------------------
      1          7           0        0.000000    0.000000    0.059497
      2          1           0        0.000000    0.971370   -0.138827
      3          1           0        0.841231   -0.485685   -0.138827
      4          1           0       -0.841231   -0.485685   -0.138827
 ---------------------------------------------------------------------
 Rotational constants (GHZ):    331.5663667    331.5663667    177.1502807
 Leave Link  202 at Fri Mar 27 20:13:27 2020, MaxMem=   33554432 cpu:       0.0
 (Enter D:\G09W\l601.exe)
 Copying SCF densities to generalized density rwf, IOpCl= 0 IROHF=0.

 **********************************************************************

            Population analysis using the SCF density.

 **********************************************************************

 Orbital symmetries:
       Occupied  (A1) (A1) (E) (E) (A1)
       Virtual   (A1) (E) (E) (E) (E) (A1) (A1) (E) (E) (A1)
 The electronic state is 1-A1.
 Alpha  occ. eigenvalues --  -15.51789  -1.13072  -0.64110  -0.64110  -0.39110
 Alpha virt. eigenvalues --    0.22895   0.32814   0.32814   0.95620   0.95620
 Alpha virt. eigenvalues --    0.97313   1.15798   1.28250   1.28250   1.45394
          Condensed to atoms (all electrons):
              1          2          3          4
     1  N    6.963510   0.339495   0.339495   0.339495
     2  H    0.339495   0.385277  -0.026052  -0.026052
     3  H    0.339495  -0.026052   0.385277  -0.026052
     4  H    0.339495  -0.026052  -0.026052   0.385277
 Mulliken atomic charges:
              1
     1  N   -0.981994
     2  H    0.327331
     3  H    0.327331
     4  H    0.327331
 Sum of Mulliken atomic charges =   0.00000
 Mulliken charges with hydrogens summed into heavy atoms:
              1
     1  N    0.000000
 Sum of Mulliken charges with hydrogens summed into heavy atoms =   0.00000
 Electronic spatial extent (au):  <R**2>=             25.7105
 Charge=              0.0000 electrons
 Dipole moment (field-independent basis, Debye):
    X=              0.0000    Y=              0.0000    Z=             -1.3867  Tot=              1.3867
 Quadrupole moment (field-independent basis, Debye-Ang):
   XX=             -5.6623   YY=             -5.6623   ZZ=             -9.2639
   XY=              0.0000   XZ=              0.0000   YZ=              0.0000
 Traceless Quadrupole moment (field-independent basis, Debye-Ang):
   XX=              1.2005   YY=              1.2005   ZZ=             -2.4011
   XY=              0.0000   XZ=              0.0000   YZ=              0.0000
 Octapole moment (field-independent basis, Debye-Ang**2):
  XXX=              0.0000  YYY=              1.0533  ZZZ=             -1.2019  XYY=              0.0000
  XXY=             -1.0533  XXZ=             -0.6236  XZZ=              0.0000  YZZ=              0.0000
  YYZ=             -0.6236  XYZ=              0.0000
 Hexadecapole moment (field-independent basis, Debye-Ang**3):
 XXXX=             -8.6134 YYYY=             -8.6134 ZZZZ=             -9.1312 XXXY=              0.0000
 XXXZ=              0.0000 YYYX=              0.0000 YYYZ=             -0.1927 ZZZX=              0.0000
 ZZZY=              0.0000 XXYY=             -2.8711 XXZZ=             -3.2094 YYZZ=             -3.2094
 XXYZ=              0.1927 YYXZ=              0.0000 ZZXY=              0.0000
 N-N= 1.215259811783D+01 E-N=-1.562176662907D+02  KE= 5.622526949014D+01
 Symmetry A'   KE= 5.361100350934D+01
 Symmetry A"   KE= 2.614265980803D+00
 No NMR shielding tensors so no spin-rotation constants.
 Leave Link  601 at Fri Mar 27 20:13:27 2020, MaxMem=   33554432 cpu:       0.0
 (Enter D:\G09W\l9999.exe)
 1|1|UNPC-DESKTOP-8BRL880|FOpt|RHF|6-31G|H3N1|AJZ34|27-Mar-2020|0||#p R
 HF/6-31G opt||NH3 Optimization||0,1|N,0.,0.,-0.0012559513|H,0.,0.97136
 95306,-0.1995801268|H,0.8412306899,-0.4856847653,-0.1995801268|H,-0.84
 12306899,-0.4856847653,-0.1995801268||Version=IA32W-G09RevB.01|State=1
 -A1|HF=-56.1655212|RMSD=2.408e-009|RMSF=2.546e-005|Dipole=0.,0.,-0.545
 567|Quadrupole=0.8925691,0.8925691,-1.7851382,0.,0.,0.|PG=C03V [C3(N1)
 ,3SGV(H1)]||@


 EDUCATION DOESN'T COST 
           ... IT PAYS!

 -- POSTMARK, UNIV. OF MISSISSIPPI, DEC 78
 Job cpu time:  0 days  0 hours  0 minutes  4.0 seconds.
 File lengths (MBytes):  RWF=      5 Int=      0 D2E=      0 Chk=      1 Scr=      1
 Normal termination of Gaussian 09 at Fri Mar 27 20:13:27 2020.
