HF Hess of H2O2                                                         
Freq      RB3LYP                                                      6-31G               
Number of atoms                            I                4
Info1-9                                    I   N=           9
          12          11           0           0           0         100
           6          18        -502
Full Title                                 C   N=           2
HF Hess of H2O2         
Route                                      C   N=           5
#p B3LYP/6-31G nosymm Freq Integral(Grid=UltraFine)         
Charge                                     I                0
Multiplicity                               I                1
Number of electrons                        I               18
Number of alpha electrons                  I                9
Number of beta electrons                   I                9
Number of basis functions                  I               22
Number of independent functions            I               22
Number of point charges in /Mol/           I                0
Number of translation vectors              I                0
Atomic numbers                             I   N=           4
           8           8           1           1
Nuclear charges                            R   N=           4
  8.00000000E+00  8.00000000E+00  1.00000000E+00  1.00000000E+00
Current cartesian coordinates              R   N=          12
  0.00000000E+00  0.00000000E+00  0.00000000E+00  0.00000000E+00  0.00000000E+00
  2.83458920E+00  1.88972613E+00  0.00000000E+00  0.00000000E+00  0.00000000E+00
  1.88972613E+00  2.83458920E+00
Number of symbols in /Mol/                 I                0
Force Field                                I                0
Atom Types                                 C   N=           4
                                                
Int Atom Types                             I   N=           4
           0           0           0           0
MM charges                                 R   N=           4
  0.00000000E+00  0.00000000E+00  0.00000000E+00  0.00000000E+00
Integer atomic weights                     I   N=           4
          16          16           1           1
Real atomic weights                        R   N=           4
  1.59949146E+01  1.59949146E+01  1.00782504E+00  1.00782504E+00
Atom fragment info                         I   N=           4
           0           0           0           0
Atom residue num                           I   N=           4
           0           0           0           0
Nuclear spins                              I   N=           4
           0           0           1           1
Nuclear ZEff                               R   N=           4
 -5.60000000E+00 -5.60000000E+00 -1.00000000E+00 -1.00000000E+00
Nuclear QMom                               R   N=           4
  0.00000000E+00  0.00000000E+00  0.00000000E+00  0.00000000E+00
Nuclear GFac                               R   N=           4
  0.00000000E+00  0.00000000E+00  2.79284600E+00  2.79284600E+00
MicOpt                                     I   N=           4
          -1          -1          -1          -1
Number of residues                         I                0
Number of secondary structures             I                0
Number of contracted shells                I               10
Number of primitive shells                 I               28
Pure/Cartesian d shells                    I                1
Pure/Cartesian f shells                    I                0
Highest angular momentum                   I                1
Largest degree of contraction              I                6
Shell types                                I   N=          10
           0          -1          -1           0          -1          -1
           0           0           0           0
Number of primitives per shell             I   N=          10
           6           3           1           6           3           1
           3           1           3           1
Shell to atom map                          I   N=          10
           1           1           1           2           2           2
           3           3           4           4
Primitive exponents                        R   N=          28
  5.48467166E+03  8.25234946E+02  1.88046958E+02  5.29645000E+01  1.68975704E+01
  5.79963534E+00  1.55396162E+01  3.59993359E+00  1.01376175E+00  2.70005823E-01
  5.48467166E+03  8.25234946E+02  1.88046958E+02  5.29645000E+01  1.68975704E+01
  5.79963534E+00  1.55396162E+01  3.59993359E+00  1.01376175E+00  2.70005823E-01
  1.87311370E+01  2.82539436E+00  6.40121692E-01  1.61277759E-01  1.87311370E+01
  2.82539436E+00  6.40121692E-01  1.61277759E-01
Contraction coefficients                   R   N=          28
  1.83107443E-03  1.39501722E-02  6.84450781E-02  2.32714336E-01  4.70192898E-01
  3.58520853E-01 -1.10777550E-01 -1.48026263E-01  1.13076702E+00  1.00000000E+00
  1.83107443E-03  1.39501722E-02  6.84450781E-02  2.32714336E-01  4.70192898E-01
  3.58520853E-01 -1.10777550E-01 -1.48026263E-01  1.13076702E+00  1.00000000E+00
  3.34946043E-02  2.34726953E-01  8.13757326E-01  1.00000000E+00  3.34946043E-02
  2.34726953E-01  8.13757326E-01  1.00000000E+00
P(S=P) Contraction coefficients            R   N=          28
  0.00000000E+00  0.00000000E+00  0.00000000E+00  0.00000000E+00  0.00000000E+00
  0.00000000E+00  7.08742682E-02  3.39752839E-01  7.27158577E-01  1.00000000E+00
  0.00000000E+00  0.00000000E+00  0.00000000E+00  0.00000000E+00  0.00000000E+00
  0.00000000E+00  7.08742682E-02  3.39752839E-01  7.27158577E-01  1.00000000E+00
  0.00000000E+00  0.00000000E+00  0.00000000E+00  0.00000000E+00  0.00000000E+00
  0.00000000E+00  0.00000000E+00  0.00000000E+00
Coordinates of each shell                  R   N=          30
  0.00000000E+00  0.00000000E+00  0.00000000E+00  0.00000000E+00  0.00000000E+00
  0.00000000E+00  0.00000000E+00  0.00000000E+00  0.00000000E+00  0.00000000E+00
  0.00000000E+00  2.83458920E+00  0.00000000E+00  0.00000000E+00  2.83458920E+00
  0.00000000E+00  0.00000000E+00  2.83458920E+00  1.88972613E+00  0.00000000E+00
  0.00000000E+00  1.88972613E+00  0.00000000E+00  0.00000000E+00  0.00000000E+00
  1.88972613E+00  2.83458920E+00  0.00000000E+00  1.88972613E+00  2.83458920E+00
Constraint Structure                       R   N=          12
  0.00000000E+00  0.00000000E+00  0.00000000E+00  0.00000000E+00  0.00000000E+00
  2.83458920E+00  1.88972613E+00  0.00000000E+00  0.00000000E+00  0.00000000E+00
  1.88972613E+00  2.83458920E+00
Num ILSW                                   I              100
ILSW                                       I   N=         100
           0           1           0           0           2           0
           0           0           0           0         402          -1
           5           0           0           0           0           0
           0           0           0           0           1           0
           1           1           0           0           0           0
           0           0      100000           0          -1           0
           0           0           0           0           0           0
           0           0           0           1           0           0
           0           0           1           0           0           0
           0           0           4          40           0           0
           0           0           5           0           0           0
           0           0           0           0           0           0
           0           0           0           0           0           0
           0           0           0           0           0           0
           0           0           0           0           0           0
           0           0           0           0           0           0
           0           0           0           0
Num RLSW                                   I               40
RLSW                                       R   N=          40
  8.00000000E-01  7.20000000E-01  1.00000000E+00  8.10000000E-01  2.00000000E-01
  0.00000000E+00  0.00000000E+00  1.00000000E+00  0.00000000E+00  0.00000000E+00
  0.00000000E+00  0.00000000E+00  1.00000000E+00  0.00000000E+00  0.00000000E+00
  0.00000000E+00  0.00000000E+00  1.00000000E+00  0.00000000E+00  0.00000000E+00
  0.00000000E+00  0.00000000E+00  1.00000000E+00  0.00000000E+00  0.00000000E+00
  0.00000000E+00  0.00000000E+00  1.00000000E+00  0.00000000E+00  0.00000000E+00
  0.00000000E+00  0.00000000E+00  1.00000000E+00  0.00000000E+00  0.00000000E+00
  0.00000000E+00  0.00000000E+00  0.00000000E+00  1.00000000E+00  1.00000000E+00
MxBond                                     I                2
NBond                                      I   N=           4
           2           2           1           1
IBond                                      I   N=           8
           2           3           1           4           1           0
           2           0
RBond                                      R   N=           8
  1.00000000E+00  1.00000000E+00  1.00000000E+00  1.00000000E+00  1.00000000E+00
  0.00000000E+00  1.00000000E+00  0.00000000E+00
Virial Ratio                               R      2.004992401282049E+00
SCF Energy                                 R     -1.514773205433183E+02
Total Energy                               R     -1.514773205433183E+02
RMS Force                                  R      1.813548590479945E-02
RMS Density                                R      2.625308307142348E-09
External E-field                           R   N=          35
  0.00000000E+00  0.00000000E+00  0.00000000E+00  0.00000000E+00  0.00000000E+00
  0.00000000E+00  0.00000000E+00  0.00000000E+00  0.00000000E+00  0.00000000E+00
  0.00000000E+00  0.00000000E+00  0.00000000E+00  0.00000000E+00  0.00000000E+00
  0.00000000E+00  0.00000000E+00  0.00000000E+00  0.00000000E+00  0.00000000E+00
  0.00000000E+00  0.00000000E+00  0.00000000E+00  0.00000000E+00  0.00000000E+00
  0.00000000E+00  0.00000000E+00  0.00000000E+00  0.00000000E+00  0.00000000E+00
  0.00000000E+00  0.00000000E+00  0.00000000E+00  0.00000000E+00  0.00000000E+00
IOpCl                                      I                0
IROHF                                      I                0
Alpha Orbital Energies                     R   N=          22
 -1.92123315E+01 -1.92122937E+01 -1.13039662E+00 -9.05981154E-01 -5.18270326E-01
 -4.83230120E-01 -4.23335935E-01 -3.06191666E-01 -3.03716012E-01 -1.53674610E-02
  3.63100390E-02  9.18957830E-02  7.72599946E-01  7.80287031E-01  8.50712105E-01
  8.67880963E-01  9.59419379E-01  9.82208323E-01  1.02969411E+00  1.03191673E+00
  1.42960401E+00  1.59859640E+00
Alpha MO coefficients                      R   N=         484
  7.03610520E-01  1.96084317E-02  1.24239315E-03  1.39263532E-04  1.11263147E-03
 -7.77304917E-03 -1.99132941E-03 -1.21976148E-04 -4.79262331E-04  7.03610357E-01
  1.96084271E-02  1.39263524E-04  1.24239289E-03 -1.11263126E-03 -7.77304651E-03
 -1.21976140E-04 -1.99132905E-03  4.79261484E-04  2.93099413E-04  2.83863997E-03
  2.93099273E-04  2.83863958E-03  7.03675635E-01  1.99892048E-02  1.12164677E-03
  3.39712114E-05  8.85043612E-04 -1.14945190E-02 -1.58008177E-03 -3.44326509E-05
 -3.65715049E-03 -7.03675798E-01 -1.99892093E-02 -3.39712436E-05 -1.12164706E-03
  8.85043870E-04  1.14945208E-02  3.44326791E-05  1.58008223E-03 -3.65715060E-03
  6.05052501E-04  1.66139656E-03 -6.05052569E-04 -1.66139722E-03 -1.48624409E-01
  3.25380037E-01  7.14340019E-02  1.01322399E-02  1.02313241E-01  3.07486011E-01
  4.24897223E-02  1.07731938E-02  4.18811491E-02 -1.48624409E-01  3.25380037E-01
  1.01322399E-02  7.14340019E-02 -1.02313241E-01  3.07486011E-01  1.07731938E-02
  4.24897223E-02 -4.18811491E-02  9.12767069E-02 -1.68641776E-02  9.12767069E-02
 -1.68641776E-02 -1.54897687E-01  3.53254696E-01  1.21329265E-01 -3.16324218E-03
 -3.97374126E-02  3.90410155E-01  5.59557201E-02  2.42963183E-03  5.33448494E-03
  1.54897687E-01 -3.53254696E-01  3.16324218E-03 -1.21329265E-01 -3.97374126E-02
 -3.90410155E-01 -2.42963183E-03 -5.59557201E-02  5.33448494E-03  1.38616371E-01
  8.61684024E-03 -1.38616371E-01 -8.61684024E-03  2.12627729E-02 -4.16540376E-02
  3.11234923E-01  1.05947485E-01 -2.36169885E-01 -9.68695917E-02  1.57524545E-01
  6.61664347E-02 -1.29865014E-01  2.12627729E-02 -4.16540376E-02  1.05947485E-01
  3.11234923E-01  2.36169885E-01 -9.68695917E-02  6.61664347E-02  1.57524545E-01
  1.29865014E-01  1.93300905E-01  1.19014547E-01  1.93300905E-01  1.19014547E-01
  6.14068659E-02 -1.41068324E-01  3.29036716E-01 -1.71352168E-01  4.09483019E-02
 -2.23921151E-01  1.75316835E-01 -1.19351173E-01  4.36543535E-02 -6.14068659E-02
  1.41068324E-01  1.71352168E-01 -3.29036716E-01  4.09483018E-02  2.23921151E-01
  1.19351173E-01 -1.75316835E-01  4.36543535E-02  1.70109417E-01  1.21527662E-01
 -1.70109417E-01 -1.21527662E-01  5.39768923E-02 -1.28897098E-01  1.51518564E-01
  1.40192615E-01  3.78801334E-01 -1.96892577E-01  1.05327042E-01  1.08357047E-01
  2.38073083E-01  5.39768923E-02 -1.28897098E-01  1.40192615E-01  1.51518564E-01
 -3.78801334E-01 -1.96892577E-01  1.08357047E-01  1.05327042E-01 -2.38073083E-01
  4.30501825E-02  8.48253172E-03  4.30501825E-02  8.48253172E-03 -2.10320378E-02
  4.32389801E-02 -1.74762915E-01  4.41316894E-01 -7.65933328E-02  1.00829017E-01
 -1.07600509E-01  3.21466856E-01 -4.57914167E-02 -2.10320378E-02  4.32389802E-02
  4.41316893E-01 -1.74762915E-01  7.65933328E-02  1.00829017E-01  3.21466856E-01
 -1.07600509E-01  4.57914167E-02 -9.98773220E-02 -4.08832462E-02 -9.98773221E-02
 -4.08832463E-02  2.44051870E-02 -6.24499136E-02  1.76881756E-01  4.43046911E-01
  3.66497108E-02 -7.90385842E-02  1.05605581E-01  3.24835821E-01  4.25633525E-02
 -2.44051870E-02  6.24499135E-02 -4.43046911E-01 -1.76881756E-01  3.66497108E-02
  7.90385841E-02 -3.24835821E-01 -1.05605581E-01  4.25633524E-02  9.58362091E-02
  6.11736152E-02 -9.58362090E-02 -6.11736151E-02 -5.89770135E-02  1.50022079E-01
  1.75598340E-02 -1.60959992E-02  5.16826719E-01  4.35980977E-01  5.16293301E-02
 -3.04063789E-02  5.39761746E-01  5.89770135E-02 -1.50022079E-01  1.60959992E-02
 -1.75598340E-02  5.16826719E-01 -4.35980977E-01  3.04063789E-02 -5.16293301E-02
  5.39761746E-01 -1.45296966E-03 -2.52317027E-01  1.45296966E-03  2.52317027E-01
  5.13063390E-02 -1.04104898E-01 -2.46643334E-01 -2.50564258E-02  3.16933892E-02
 -5.77471252E-01 -3.72287512E-01 -2.50037073E-02  2.42543055E-02  5.13063390E-02
 -1.04104898E-01 -2.50564258E-02 -2.46643334E-01 -3.16933892E-02 -5.77471252E-01
 -2.50037073E-02 -3.72287512E-01 -2.42543055E-02  1.12565203E-01  9.47149410E-01
  1.12565203E-01  9.47149410E-01  2.39017052E-02 -2.38612916E-02 -2.83311473E-01
  2.12289607E-02  1.50891375E-01 -4.20239609E-01 -4.22669981E-01  3.01474836E-02
  1.75416403E-01 -2.39017052E-02  2.38612916E-02 -2.12289607E-02  2.83311473E-01
  1.50891375E-01  4.20239609E-01 -3.01474836E-02  4.22669981E-01  1.75416403E-01
  1.53762913E-01  1.06923443E+00 -1.53762913E-01 -1.06923443E+00  7.97325434E-03
 -2.89671902E-02 -4.23279223E-01  2.46433266E-02 -1.70938805E-01  1.12868454E-01
  1.42002444E-01  1.37010923E-02  1.92114388E-01  7.97325434E-03 -2.89671902E-02
  2.46433266E-02 -4.23279223E-01  1.70938805E-01  1.12868454E-01  1.37010923E-02
  1.42002444E-01 -1.92114388E-01  8.00367531E-01 -6.66868318E-01  8.00367531E-01
 -6.66868318E-01  5.65844848E-03 -1.20314034E-01 -2.84875572E-01 -5.65331742E-02
 -3.88928814E-01  5.05582078E-01  6.48570417E-02  1.12878546E-02  7.01911652E-01
 -5.65844848E-03  1.20314034E-01  5.65331742E-02  2.84875572E-01 -3.88928814E-01
 -5.05582078E-01 -1.12878546E-02 -6.48570418E-02  7.01911652E-01  6.81588919E-01
 -6.28820472E-01 -6.81588919E-01  6.28820472E-01  4.14519937E-02 -2.68849541E-01
  1.25304542E-01 -5.23997317E-01  2.57707806E-01 -4.70639153E-02 -1.86109901E-01
  5.33059740E-01 -5.27645723E-01 -4.14519937E-02  2.68849541E-01  5.23997317E-01
 -1.25304542E-01  2.57707806E-01  4.70639153E-02 -5.33059740E-01  1.86109901E-01
 -5.27645723E-01  3.33097006E-01 -1.95407981E-01 -3.33097006E-01  1.95407981E-01
 -2.63059726E-02  2.12079628E-01 -2.10173656E-01 -6.06123947E-01 -6.42448023E-02
 -1.11110625E-01  2.51662326E-01  6.39382497E-01  6.51704851E-02 -2.63059725E-02
  2.12079628E-01 -6.06123947E-01 -2.10173656E-01  6.42448023E-02 -1.11110625E-01
  6.39382497E-01  2.51662326E-01 -6.51704850E-02 -1.94032094E-01 -2.75873764E-02
 -1.94032094E-01 -2.75873764E-02 -4.73457344E-02  2.96299873E-01 -1.77525956E-03
 -4.11190883E-01 -3.11182405E-01  3.00260735E-02  2.16124278E-01  5.86803955E-01
  7.88400529E-01  4.73457345E-02 -2.96299873E-01  4.11190883E-01  1.77525958E-03
 -3.11182405E-01 -3.00260735E-02 -5.86803955E-01 -2.16124278E-01  7.88400529E-01
 -5.32313720E-01  6.72598283E-01  5.32313720E-01 -6.72598283E-01 -2.96251574E-02
  2.11034684E-01 -4.74938570E-01  2.33398744E-01  2.57297187E-01  2.89456164E-02
  8.76894434E-01 -4.32765951E-01 -2.68679714E-01 -2.96251574E-02  2.11034684E-01
  2.33398744E-01 -4.74938570E-01 -2.57297187E-01  2.89456164E-02 -4.32765951E-01
  8.76894434E-01  2.68679714E-01 -3.71749810E-01 -9.11311595E-03 -3.71749810E-01
 -9.11311594E-03  3.56679686E-02 -4.73772649E-01 -2.42147522E-02 -1.65460875E-01
  5.66370098E-01  7.64072669E-01 -4.36779027E-02  2.52771030E-01 -6.24503069E-01
  3.56679686E-02 -4.73772649E-01 -1.65460875E-01 -2.42147520E-02 -5.66370098E-01
  7.64072669E-01  2.52771029E-01 -4.36779032E-02  6.24503069E-01  2.79827648E-01
 -4.42583626E-01  2.79827648E-01 -4.42583626E-01 -4.51679513E-05 -4.16915320E-02
 -6.13989298E-01 -5.68465782E-02  2.29037845E-01  6.47103274E-02  1.06470620E+00
  1.95156795E-01 -5.87684629E-01  4.51679375E-05  4.16915322E-02  5.68465783E-02
  6.13989298E-01  2.29037845E-01 -6.47103277E-02 -1.95156796E-01 -1.06470620E+00
 -5.87684629E-01 -1.23959826E-01 -6.27690672E-01  1.23959826E-01  6.27690673E-01
  5.02451394E-02 -1.05350025E+00 -1.89066189E-01 -1.68398386E-02 -3.16133524E-01
  1.30285840E+00  6.89362513E-01 -4.39145845E-02  2.40651885E-01  5.02451394E-02
 -1.05350025E+00 -1.68398386E-02 -1.89066189E-01  3.16133524E-01  1.30285840E+00
 -4.39145845E-02  6.89362513E-01 -2.40651885E-01 -4.11348653E-01 -5.11958192E-01
 -4.11348653E-01 -5.11958192E-01  5.67606840E-03 -1.25774964E+00 -3.30158748E-02
  2.47149428E-02 -1.17387032E-01  2.65868085E+00  4.06826801E-01  2.14259174E-02
  1.32367466E+00 -5.67606840E-03  1.25774964E+00 -2.47149428E-02  3.30158749E-02
 -1.17387032E-01 -2.65868085E+00 -2.14259174E-02 -4.06826801E-01  1.32367466E+00
 -5.67272539E-01 -6.77512301E-02  5.67272539E-01  6.77512301E-02
Total SCF Density                          R   N=         253
  2.08896809E+00 -1.88308701E-01  5.50929003E-01  3.04935246E-02 -6.27277199E-02
  6.19491708E-01 -1.30957482E-04 -9.42907856E-03 -1.16704231E-03  9.02808519E-01
  2.55987743E-02 -6.21465872E-02  3.94453209E-02  9.33023988E-03  4.40404503E-01
 -3.00436844E-01  6.15759232E-01 -1.91902868E-01  2.37244705E-02 -1.11134147E-01
  7.23729911E-01  1.42905349E-02 -4.51916683E-02  3.39952255E-01  1.93994116E-03
  4.82128085E-02 -1.19012900E-01  1.88634100E-01 -1.98860815E-03 -3.82365413E-03
  1.63409215E-04  6.57079643E-01  1.76409894E-02  1.99643308E-02  2.43994443E-03
  4.78690360E-01  9.62032628E-03 -4.12892099E-02  5.83668820E-02  2.23865382E-02
  2.63553355E-01 -7.40899370E-02  4.75576063E-02  2.31280214E-02  1.62308003E-01
 -5.10880579E-03  1.50476241E-02  4.42312852E-03 -3.34826432E-03 -1.51490939E-02
  3.65283251E-02  3.57174198E-05 -2.78110298E-03  8.34154149E-03  2.08896809E+00
  1.50476241E-02 -4.50258454E-02 -4.40629986E-03  9.02143840E-03  2.61934762E-02
 -8.10751208E-02  1.17503229E-03  6.54317984E-03 -1.32692265E-02 -1.88308701E-01
  5.50929003E-01 -3.34826432E-03  9.02143840E-03 -8.75750631E-02  1.59965471E-04
 -2.80565200E-02  1.52595829E-02 -6.43410650E-02 -3.63967341E-04 -2.30546426E-02
 -1.30957482E-04 -9.42907856E-03  9.02808519E-01  4.42312852E-03 -4.40629986E-03
  2.39424835E-03 -8.75750631E-02 -2.10980457E-02 -3.06889492E-02  7.34157357E-03
 -7.37620282E-02 -3.17758891E-02  3.04935246E-02 -6.27277199E-02 -1.16704231E-03
  6.19491708E-01  1.51490939E-02 -2.61934762E-02  2.10980457E-02  2.80565200E-02
 -4.22005263E-01  7.74168619E-04 -1.29151817E-02  1.00443437E-02 -2.51024192E-01
 -2.55987743E-02  6.21465872E-02 -9.33023988E-03 -3.94453209E-02  4.40404503E-01
  3.65283251E-02 -8.10751208E-02 -3.06889492E-02  1.52595829E-02 -7.74168622E-04
 -1.12030060E-01 -1.60520223E-02  1.19657813E-02 -3.00315133E-02 -3.00436844E-01
  6.15759232E-01  2.37244705E-02 -1.91902868E-01  1.11134147E-01  7.23729911E-01
 -2.78110298E-03  6.54317984E-03 -7.37620282E-02 -3.63967341E-04 -1.00443437E-02
  1.19657813E-02 -5.16249036E-02 -3.85308971E-04 -1.13879386E-02 -1.98860815E-03
 -3.82365413E-03  6.57079643E-01  1.63409215E-04 -1.76409894E-02  1.99643308E-02
  4.78690360E-01  3.57174197E-05  1.17503229E-03  7.34157357E-03 -6.43410650E-02
  1.29151817E-02 -1.60520223E-02  8.54581754E-03 -5.16249036E-02 -2.25257050E-03
  1.42905349E-02 -4.51916683E-02  1.93994116E-03  3.39952255E-01 -4.82128085E-02
 -1.19012900E-01  2.43994443E-03  1.88634100E-01 -8.34154149E-03  1.32692265E-02
  3.17758891E-02  2.30546426E-02 -2.51024192E-01  3.00315133E-02  2.25257050E-03
  1.13879386E-02 -1.47271311E-01 -9.62032628E-03  4.12892099E-02 -2.23865382E-02
 -5.83668820E-02  2.63553355E-01  7.40899370E-02 -2.31280214E-02 -4.75576063E-02
  1.62308003E-01 -2.61721494E-02  6.15658608E-02  3.60806385E-01 -7.52949303E-03
 -1.47699330E-02 -1.52662366E-03  1.94615761E-01 -5.00815866E-03  1.15691663E-02
  6.87108152E-03 -1.44219998E-02 -5.90209422E-02  1.83509704E-03  3.46512957E-02
 -3.53043406E-02 -4.96683231E-02  3.81853676E-03  3.74002783E-02  2.29724436E-01
  3.42839308E-02 -6.22740135E-02  1.92250737E-01  3.67417712E-03 -3.32158753E-02
 -1.02463008E-01  1.03127320E-01  1.71413096E-03 -8.64611410E-03 -8.75838829E-04
  9.27335153E-03 -2.13320313E-02 -1.51688540E-02  6.07255000E-02  1.23477314E-02
 -1.98370333E-02 -9.85530613E-03  4.04415385E-02  1.07293432E-01  6.95770159E-02
  6.87108152E-03 -1.44219998E-02  1.83509704E-03 -5.90209422E-02 -3.46512957E-02
 -3.53043406E-02  3.81853676E-03 -4.96683231E-02 -3.74002783E-02 -2.61721494E-02
  6.15658608E-02 -7.52949303E-03  3.60806385E-01  1.47699330E-02 -1.52662366E-03
 -5.00815866E-03  1.94615761E-01 -1.15691663E-02  3.77806807E-04 -3.63091752E-03
  2.29724436E-01 -8.75838829E-04  9.27335153E-03 -1.51688540E-02 -2.13320313E-02
 -6.07255000E-02  1.23477314E-02 -9.85530613E-03 -1.98370333E-02 -4.04415385E-02
  3.42839308E-02 -6.22740135E-02  3.67417712E-03  1.92250737E-01  3.32158753E-02
 -1.02463008E-01  1.71413096E-03  1.03127320E-01  8.64611410E-03 -3.63091752E-03
 -4.77576011E-03  1.07293432E-01  6.95770159E-02
Grdnt Energy                               R     -1.514773205433183E+02
Grdnt NVar                                 I               12
Grdnt IGetFC                               I                4
Internal Forces                            R   N=          12
  2.71955157E-02 -1.07156531E-02 -1.76465694E-02 -1.07156531E-02  2.71955157E-02
  1.76465694E-02 -9.99638135E-03 -6.48348133E-03 -2.57990158E-02 -6.48348133E-03
 -9.99638135E-03  2.57990158E-02
Internal Force Constants                   R   N=          78
  4.21368986E-01 -5.34923706E-03  3.74878158E-02 -1.81684689E-02  3.94055387E-02
  3.00864941E-01 -2.13104951E-02  3.56846341E-03  7.79279963E-04  3.74878158E-02
  2.24996652E-03 -2.13104951E-02 -4.29467084E-02 -5.34923706E-03  4.21368986E-01
  4.29467084E-02 -7.79279962E-04 -2.34201422E-01 -3.94055387E-02  1.81684689E-02
  3.00864941E-01 -4.08495277E-01  4.20038801E-03  1.68015901E-02  6.38878358E-04
  3.33499414E-04 -2.95400992E-03  4.09360450E-01  2.76577113E-03 -1.68161991E-02
  5.87159779E-04 -2.41961437E-03  8.43678671E-03 -5.87598829E-04 -4.93488521E-03
  9.88346372E-03 -2.86530971E-02  1.72273909E-03 -1.23440856E-02  4.03489979E-02
 -3.87485757E-03 -5.43194330E-02 -1.49497369E-02  3.25427516E-03  7.06976329E-02
  8.43678671E-03 -2.41961437E-03  5.87598828E-04 -1.68161991E-02  2.76577113E-03
 -5.87159778E-04 -1.50405138E-03  4.58872845E-03  3.25383611E-03  9.88346372E-03
  3.33499414E-04  6.38878358E-04  2.95400992E-03  4.20038801E-03 -4.08495277E-01
 -1.68015901E-02  4.00997782E-04 -1.50405138E-03 -1.10215668E-03 -4.93488521E-03
  4.09360450E-01  3.87485757E-03 -4.03489979E-02 -5.43194330E-02 -1.72273909E-03
  2.86530971E-02 -1.23440856E-02  1.10215668E-03 -3.25383611E-03 -4.03411429E-03
 -3.25427516E-03  1.49497369E-02  7.06976329E-02
QEq coupling tensors                       R   N=          24
 -4.15411868E-01 -1.11924409E-02  2.89002074E+00  4.83878703E-01  1.11318592E-01
 -2.47460888E+00  2.89002074E+00 -1.11924409E-02 -4.15411868E-01 -1.11318592E-01
 -4.83878703E-01 -2.47460888E+00 -3.90024911E-01  4.25135109E-03  2.32282175E-01
  3.81650443E-02 -5.85289418E-03  1.57742736E-01  2.32282175E-01  4.25135109E-03
 -3.90024911E-01  5.85289418E-03 -3.81650443E-02  1.57742736E-01
Mulliken Charges                           R   N=           4
 -3.87166130E-01 -3.87166130E-01  3.87166130E-01  3.87166130E-01
ONIOM Charges                              I   N=          16
           0           0           0           0           0           0
           0           0           0           0           0           0
           0           0           0           0
ONIOM Multiplicities                       I   N=          16
           1           0           0           0           0           0
           0           0           0           0           0           0
           0           0           0           0
Atom Layers                                I   N=           4
           1           1           1           1
Atom Modifiers                             I   N=           4
           0           0           0           0
Force Field                                I                0
Atom Modified Types                        C   N=           4
                                                
Int Atom Modified Types                    I   N=           4
           0           0           0           0
Link Atoms                                 I   N=           4
           0           0           0           0
Atom Modified MM Charges                   R   N=           4
  0.00000000E+00  0.00000000E+00  0.00000000E+00  0.00000000E+00
Link Distances                             R   N=          16
  0.00000000E+00  0.00000000E+00  0.00000000E+00  0.00000000E+00  0.00000000E+00
  0.00000000E+00  0.00000000E+00  0.00000000E+00  0.00000000E+00  0.00000000E+00
  0.00000000E+00  0.00000000E+00  0.00000000E+00  0.00000000E+00  0.00000000E+00
  0.00000000E+00
Cartesian Gradient                         R   N=          12
 -2.71955157E-02  1.07156531E-02  1.76465694E-02  1.07156531E-02 -2.71955157E-02
 -1.76465694E-02  9.99638135E-03  6.48348133E-03  2.57990158E-02  6.48348133E-03
  9.99638135E-03 -2.57990158E-02
Cartesian Force Constants                  R   N=          78
  4.21368986E-01 -5.34923706E-03  3.74878158E-02 -1.81684689E-02  3.94055387E-02
  3.00864941E-01 -2.13104951E-02  3.56846341E-03  7.79279963E-04  3.74878158E-02
  2.24996652E-03 -2.13104951E-02 -4.29467084E-02 -5.34923706E-03  4.21368986E-01
  4.29467084E-02 -7.79279962E-04 -2.34201422E-01 -3.94055387E-02  1.81684689E-02
  3.00864941E-01 -4.08495277E-01  4.20038801E-03  1.68015901E-02  6.38878358E-04
  3.33499414E-04 -2.95400992E-03  4.09360450E-01  2.76577113E-03 -1.68161991E-02
  5.87159779E-04 -2.41961437E-03  8.43678671E-03 -5.87598829E-04 -4.93488521E-03
  9.88346372E-03 -2.86530971E-02  1.72273909E-03 -1.23440856E-02  4.03489979E-02
 -3.87485757E-03 -5.43194330E-02 -1.49497369E-02  3.25427516E-03  7.06976329E-02
  8.43678671E-03 -2.41961437E-03  5.87598828E-04 -1.68161991E-02  2.76577113E-03
 -5.87159778E-04 -1.50405138E-03  4.58872845E-03  3.25383611E-03  9.88346372E-03
  3.33499414E-04  6.38878358E-04  2.95400992E-03  4.20038801E-03 -4.08495277E-01
 -1.68015901E-02  4.00997782E-04 -1.50405138E-03 -1.10215668E-03 -4.93488521E-03
  4.09360450E-01  3.87485757E-03 -4.03489979E-02 -5.43194330E-02 -1.72273909E-03
  2.86530971E-02 -1.23440856E-02  1.10215668E-03 -3.25383611E-03 -4.03411429E-03
 -3.25427516E-03  1.49497369E-02  7.06976329E-02
Dipole Moment                              R   N=           3
  7.87399810E-01  7.87399810E-01  2.12025952E-11
Dipole Derivatives                         R   N=          36
 -1.04891145E-02  1.72078757E-03  1.37363089E-01  3.07307535E-02 -4.13300900E-01
  1.16479645E-01  3.46365320E-02 -6.40643981E-03 -2.41953738E-01 -4.13300900E-01
  3.07307535E-02 -1.16479645E-01  1.72078757E-03 -1.04891145E-02 -1.37363089E-01
  6.40643981E-03 -3.46365320E-02 -2.41953738E-01  3.55484974E-02 -4.01795932E-03
 -2.08837077E-02 -2.84335818E-02  3.88241517E-01 -2.63382368E-07 -3.75970208E-02
  3.44595104E-03  2.41953738E-01  3.88241517E-01 -2.84335818E-02  2.63382510E-07
 -4.01795932E-03  3.55484973E-02  2.08837077E-02 -3.44595104E-03  3.75970208E-02
  2.41953738E-01
Polarizability                             R   N=           6
  7.09171492E+00 -1.79058687E-01  7.09171492E+00 -1.12793003E+00  1.12793003E+00
  1.41828084E+01
