 Entering Link 1 = D:\G09W\l1.exe PID=      6968.
  
 Copyright (c) 1988,1990,1992,1993,1995,1998,2003,2009,2010,
            Gaussian, Inc.  All Rights Reserved.
  
 This is part of the Gaussian(R) 09 program.  It is based on
 the Gaussian(R) 03 system (copyright 2003, Gaussian, Inc.),
 the Gaussian(R) 98 system (copyright 1998, Gaussian, Inc.),
 the Gaussian(R) 94 system (copyright 1995, Gaussian, Inc.),
 the Gaussian 92(TM) system (copyright 1992, Gaussian, Inc.),
 the Gaussian 90(TM) system (copyright 1990, Gaussian, Inc.),
 the Gaussian 88(TM) system (copyright 1988, Gaussian, Inc.),
 the Gaussian 86(TM) system (copyright 1986, Carnegie Mellon
 University), and the Gaussian 82(TM) system (copyright 1983,
 Carnegie Mellon University). Gaussian is a federally registered
 trademark of Gaussian, Inc.
  
 This software contains proprietary and confidential information,
 including trade secrets, belonging to Gaussian, Inc.
  
 This software is provided under written license and may be
 used, copied, transmitted, or stored only in accord with that
 written license.
  
 The following legend is applicable only to US Government
 contracts under FAR:
  
                    RESTRICTED RIGHTS LEGEND
  
 Use, reproduction and disclosure by the US Government is
 subject to restrictions as set forth in subparagraphs (a)
 and (c) of the Commercial Computer Software - Restricted
 Rights clause in FAR 52.227-19.
  
 Gaussian, Inc.
 340 Quinnipiac St., Bldg. 40, Wallingford CT 06492
  
  
 ---------------------------------------------------------------
 Warning -- This program may not be used in any manner that
 competes with the business of Gaussian, Inc. or will provide
 assistance to any competitor of Gaussian, Inc.  The licensee
 of this program is prohibited from giving any competitor of
 Gaussian, Inc. access to this program.  By using this program,
 the user acknowledges that Gaussian, Inc. is engaged in the
 business of creating and licensing software in the field of
 computational chemistry and represents and warrants to the
 licensee that it is not a competitor of Gaussian, Inc. and that
 it will not use this program in any manner prohibited above.
 ---------------------------------------------------------------
  

 Cite this work as:
 Gaussian 09, Revision B.01,
 M. J. Frisch, G. W. Trucks, H. B. Schlegel, G. E. Scuseria, 
 M. A. Robb, J. R. Cheeseman, G. Scalmani, V. Barone, B. Mennucci, 
 G. A. Petersson, H. Nakatsuji, M. Caricato, X. Li, H. P. Hratchian, 
 A. F. Izmaylov, J. Bloino, G. Zheng, J. L. Sonnenberg, M. Hada, 
 M. Ehara, K. Toyota, R. Fukuda, J. Hasegawa, M. Ishida, T. Nakajima, 
 Y. Honda, O. Kitao, H. Nakai, T. Vreven, J. A. Montgomery, Jr., 
 J. E. Peralta, F. Ogliaro, M. Bearpark, J. J. Heyd, E. Brothers, 
 K. N. Kudin, V. N. Staroverov, T. Keith, R. Kobayashi, J. Normand, 
 K. Raghavachari, A. Rendell, J. C. Burant, S. S. Iyengar, J. Tomasi, 
 M. Cossi, N. Rega, J. M. Millam, M. Klene, J. E. Knox, J. B. Cross, 
 V. Bakken, C. Adamo, J. Jaramillo, R. Gomperts, R. E. Stratmann, 
 O. Yazyev, A. J. Austin, R. Cammi, C. Pomelli, J. W. Ochterski, 
 R. L. Martin, K. Morokuma, V. G. Zakrzewski, G. A. Voth, 
 P. Salvador, J. J. Dannenberg, S. Dapprich, A. D. Daniels, 
 O. Farkas, J. B. Foresman, J. V. Ortiz, J. Cioslowski, 
 and D. J. Fox, Gaussian, Inc., Wallingford CT, 2010.
 
 ******************************************
 Gaussian 09:  IA32W-G09RevB.01 12-Aug-2010
                25-Feb-2019 
 ******************************************
 %chk=B3LYP-hess
 ---------------------------------------------------
 #p B3LYP/6-31G nosymm Freq Integral(Grid=UltraFine)
 ---------------------------------------------------
 1/10=4,30=1,38=1/1,3;
 2/12=2,15=1,17=6,18=5,40=1/2;
 3/5=1,6=6,11=2,16=1,25=1,30=1,71=2,74=-5,75=-5/1,2,3;
 4//1;
 5/5=2,38=5,98=1/2;
 8/6=4,10=90,11=11/1;
 11/6=1,8=1,9=11,15=111,16=1,31=1/1,2,10;
 10/6=1,31=1/2;
 6/7=2,8=2,9=2,10=2,18=1,28=1/1;
 7/8=1,10=1,25=1,30=1/1,2,3,16;
 1/10=4,30=1/3;
 99//99;
 Leave Link    1 at Mon Feb 25 10:33:32 2019, MaxMem=          0 cpu:       0.0
 (Enter D:\G09W\l101.exe)
 ---------------
 HF Hess of H2O2
 ---------------
 Symbolic Z-matrix:
 Charge =  0 Multiplicity = 1
 O                     0.        0.        0. 
 O                     0.        0.        1.5 
 H                     1.        0.        0. 
 H                     0.        1.        1.5 
 
 NAtoms=      4 NQM=      4 NQMF=      0 NMic=      0 NMicF=      0 NTot=      4.
                    Isotopes and Nuclear Properties:
 (Nuclear quadrupole moments (NQMom) in fm**2, nuclear magnetic moments (NMagM)
  in nuclear magnetons)

  Atom         1           2           3           4
 IAtWgt=          16          16           1           1
 AtmWgt=  15.9949146  15.9949146   1.0078250   1.0078250
 NucSpn=           0           0           1           1
 AtZEff=   0.0000000   0.0000000   0.0000000   0.0000000
 NQMom=    0.0000000   0.0000000   0.0000000   0.0000000
 NMagM=    0.0000000   0.0000000   2.7928460   2.7928460
 Leave Link  101 at Mon Feb 25 10:33:33 2019, MaxMem=   33554432 cpu:       0.0
 (Enter D:\G09W\l103.exe)

 GradGradGradGradGradGradGradGradGradGradGradGradGradGradGradGradGradGrad
 Berny optimization.
 Initialization pass.
 Trust Radius=3.00D-01 FncErr=1.00D-07 GrdErr=1.00D-07
 Number of steps in this run=      2 maximum allowed number of steps=      2.
 GradGradGradGradGradGradGradGradGradGradGradGradGradGradGradGradGradGrad

 Leave Link  103 at Mon Feb 25 10:33:33 2019, MaxMem=   33554432 cpu:       0.0
 (Enter D:\G09W\l202.exe)
                          Input orientation:                          
 ---------------------------------------------------------------------
 Center     Atomic      Atomic             Coordinates (Angstroms)
 Number     Number       Type             X           Y           Z
 ---------------------------------------------------------------------
      1          8           0        0.000000    0.000000    0.000000
      2          8           0        0.000000    0.000000    1.500000
      3          1           0        1.000000    0.000000    0.000000
      4          1           0        0.000000    1.000000    1.500000
 ---------------------------------------------------------------------
                    Distance matrix (angstroms):
                    1          2          3          4
     1  O    0.000000
     2  O    1.500000   0.000000
     3  H    1.000000   1.802776   0.000000
     4  H    1.802776   1.000000   2.061553   0.000000
 Symmetry turned off by external request.
 Stoichiometry    H2O2
 Framework group  C2[X(H2O2)]
 Deg. of freedom     4
 Full point group                 C2      NOp   2
 Rotational constants (GHZ):    266.9627641     25.0983976     25.0945285
 Leave Link  202 at Mon Feb 25 10:33:33 2019, MaxMem=   33554432 cpu:       0.0
 (Enter D:\G09W\l301.exe)
 Standard basis: 6-31G (6D, 7F)
 Ernie: Thresh=  0.10000D-02 Tol=  0.10000D-05 Strict=F.
 Integral buffers will be    262144 words long.
 Raffenetti 2 integral format.
 Two-electron integral symmetry is turned off.
    22 basis functions,    52 primitive gaussians,    22 cartesian basis functions
     9 alpha electrons        9 beta electrons
       nuclear repulsion energy        35.9983067771 Hartrees.
 IExCor=  402 DFT=T Ex+Corr=B3LYP ExCW=0 ScaHFX=  0.200000
 ScaDFX=  0.800000  0.720000  1.000000  0.810000 ScalE2=  1.000000  1.000000
 IRadAn=      5 IRanWt=     -1 IRanGd=            0 ICorTp=0
 NAtoms=    4 NActive=    4 NUniq=    4 SFac= 1.00D+00 NAtFMM=   50 NAOKFM=F Big=F
 Leave Link  301 at Mon Feb 25 10:33:33 2019, MaxMem=   33554432 cpu:       0.0
 (Enter D:\G09W\l302.exe)
 NPDir=0 NMtPBC=     1 NCelOv=     1 NCel=       1 NClECP=     1 NCelD=      1
         NCelK=      1 NCelE2=     1 NClLst=     1 CellRange=     0.0.
 One-electron integrals computed using PRISM.
 NBasis=    22 RedAO= T  NBF=    22
 NBsUse=    22 1.00D-06 NBFU=    22
 Precomputing XC quadrature grid using
 IXCGrd= 2 IRadAn=           5 IRanWt=          -1 IRanGd=           0 AccXCQ= 0.00D+00.
 NRdTot=     326 NPtTot=       86516 NUsed=       88035 NTot=       88051
 NSgBfM=    22    22    22    22    22 NAtAll=     4     4.
 Leave Link  302 at Mon Feb 25 10:33:34 2019, MaxMem=   33554432 cpu:       1.0
 (Enter D:\G09W\l303.exe)
 DipDrv:  MaxL=1.
 Leave Link  303 at Mon Feb 25 10:33:34 2019, MaxMem=   33554432 cpu:       0.0
 (Enter D:\G09W\l401.exe)
 Harris functional with IExCor=  402 diagonalized for initial guess.
 ExpMin= 1.61D-01 ExpMax= 5.48D+03 ExpMxC= 8.25D+02 IAcc=3 IRadAn=         5 AccDes= 0.00D+00
 HarFok:  IExCor=  402 AccDes= 0.00D+00 IRadAn=         5 IDoV= 1
 ScaDFX=  1.000000  1.000000  1.000000  1.000000
 FoFCou: FMM=F IPFlag=           0 FMFlag=      100000 FMFlg1=           0
         NFxFlg=           0 DoJE=T BraDBF=F KetDBF=T FulRan=T
         Omega=  0.000000  0.000000  1.000000  0.000000  0.000000 ICntrl=     500 IOpCl=  0
         NMat0=    1 NMatS0=    1 NMatT0=    0 NMatD0=    1 NMtDS0=    0 NMtDT0=    0
         I1Cent=           4 NGrid=           0.
 Symmetry not used in FoFCou.
 Harris En= -151.510848480285    
 Leave Link  401 at Mon Feb 25 10:33:35 2019, MaxMem=   33554432 cpu:       1.0
 (Enter D:\G09W\l502.exe)
 Closed shell SCF:
 Requested convergence on RMS density matrix=1.00D-08 within 128 cycles.
 Requested convergence on MAX density matrix=1.00D-06.
 Requested convergence on             energy=1.00D-06.
 No special actions if energy rises.
 Using DIIS extrapolation, IDIIS=  1040.
 Two-electron integral symmetry not used.
        87991 words used for storage of precomputed grid.
 Keep R1 ints in memory in canonical form, NReq=997222.
 IEnd=      107836 IEndB=      107836 NGot=    33554432 MDV=    33431584
 LenX=    33431584 LenY=    33430659
 Symmetry not used in FoFDir.
 MinBra= 0 MaxBra= 1 Meth= 1.
 IRaf=       0 NMat=   1 IRICut=       1 DoRegI=T DoRafI=F ISym2E= 0 JSym2E=0.
 Integral accuracy reduced to 1.0D-05 until final iterations.

 Cycle   1  Pass 0  IDiag  1:
 E= -151.449314937586    
 DIIS: error= 2.92D-02 at cycle   1 NSaved=   1.
 NSaved= 1 IEnMin= 1 EnMin= -151.449314937586     IErMin= 1 ErrMin= 2.92D-02
 ErrMax= 2.92D-02 EMaxC= 1.00D-01 BMatC= 2.83D-02 BMatP= 2.83D-02
 IDIUse=3 WtCom= 7.08D-01 WtEn= 2.92D-01
 Coeff-Com:  0.100D+01
 Coeff-En:   0.100D+01
 Coeff:      0.100D+01
 Gap=     0.302 Goal=   None    Shift=    0.000
 GapD=    0.302 DampG=1.000 DampE=0.500 DampFc=0.5000 IDamp=-1.
 Damping current iteration by 5.00D-01
 RMSDP=1.39D-02 MaxDP=8.35D-02              OVMax= 1.02D-01

 Cycle   2  Pass 0  IDiag  1:
 E= -151.462113661584     Delta-E=       -0.012798723998 Rises=F Damp=T
 DIIS: error= 5.35D-03 at cycle   2 NSaved=   2.
 NSaved= 2 IEnMin= 2 EnMin= -151.462113661584     IErMin= 2 ErrMin= 5.35D-03
 ErrMax= 5.35D-03 EMaxC= 1.00D-01 BMatC= 1.47D-03 BMatP= 2.83D-02
 IDIUse=3 WtCom= 9.46D-01 WtEn= 5.35D-02
 Coeff-Com:  0.821D-01 0.918D+00
 Coeff-En:   0.452D-01 0.955D+00
 Coeff:      0.801D-01 0.920D+00
 Gap=     0.337 Goal=   None    Shift=    0.000
 RMSDP=2.10D-03 MaxDP=1.02D-02 DE=-1.28D-02 OVMax= 4.03D-02

 Cycle   3  Pass 0  IDiag  1:
 E= -151.477276716865     Delta-E=       -0.015163055281 Rises=F Damp=F
 DIIS: error= 9.04D-04 at cycle   3 NSaved=   3.
 NSaved= 3 IEnMin= 3 EnMin= -151.477276716865     IErMin= 3 ErrMin= 9.04D-04
 ErrMax= 9.04D-04 EMaxC= 1.00D-01 BMatC= 3.96D-05 BMatP= 1.47D-03
 IDIUse=3 WtCom= 9.91D-01 WtEn= 9.04D-03
 Coeff-Com: -0.896D-03 0.116D+00 0.885D+00
 Coeff-En:   0.000D+00 0.000D+00 0.100D+01
 Coeff:     -0.888D-03 0.115D+00 0.886D+00
 Gap=     0.288 Goal=   None    Shift=    0.000
 RMSDP=3.62D-04 MaxDP=1.31D-03 DE=-1.52D-02 OVMax= 3.01D-03

 Cycle   4  Pass 0  IDiag  1:
 E= -151.477317909253     Delta-E=       -0.000041192387 Rises=F Damp=F
 DIIS: error= 1.50D-04 at cycle   4 NSaved=   4.
 NSaved= 4 IEnMin= 4 EnMin= -151.477317909253     IErMin= 4 ErrMin= 1.50D-04
 ErrMax= 1.50D-04 EMaxC= 1.00D-01 BMatC= 9.81D-07 BMatP= 3.96D-05
 IDIUse=3 WtCom= 9.98D-01 WtEn= 1.50D-03
 Coeff-Com:  0.364D-02-0.110D-01 0.339D-01 0.974D+00
 Coeff-En:   0.000D+00 0.000D+00 0.000D+00 0.100D+01
 Coeff:      0.363D-02-0.110D-01 0.338D-01 0.974D+00
 Gap=     0.288 Goal=   None    Shift=    0.000
 RMSDP=3.62D-05 MaxDP=1.87D-04 DE=-4.12D-05 OVMax= 2.80D-04

 Cycle   5  Pass 0  IDiag  1:
 E= -151.477318737383     Delta-E=       -0.000000828130 Rises=F Damp=F
 DIIS: error= 7.80D-06 at cycle   5 NSaved=   5.
 NSaved= 5 IEnMin= 5 EnMin= -151.477318737383     IErMin= 5 ErrMin= 7.80D-06
 ErrMax= 7.80D-06 EMaxC= 1.00D-01 BMatC= 1.96D-09 BMatP= 9.81D-07
 IDIUse=1 WtCom= 1.00D+00 WtEn= 0.00D+00
 Coeff-Com:  0.120D-03-0.438D-03-0.431D-02-0.205D-01 0.103D+01
 Coeff:      0.120D-03-0.438D-03-0.431D-02-0.205D-01 0.103D+01
 Gap=     0.288 Goal=   None    Shift=    0.000
 RMSDP=3.97D-06 MaxDP=1.76D-05 DE=-8.28D-07 OVMax= 5.49D-05

 Initial convergence to 1.0D-05 achieved.  Increase integral accuracy.
 Cycle   6  Pass 1  IDiag  1:
 E= -151.477320543172     Delta-E=       -0.000001805789 Rises=F Damp=F
 DIIS: error= 1.38D-06 at cycle   1 NSaved=   1.
 NSaved= 1 IEnMin= 1 EnMin= -151.477320543172     IErMin= 1 ErrMin= 1.38D-06
 ErrMax= 1.38D-06 EMaxC= 1.00D-01 BMatC= 6.88D-11 BMatP= 6.88D-11
 IDIUse=1 WtCom= 1.00D+00 WtEn= 0.00D+00
 Coeff-Com:  0.100D+01
 Coeff:      0.100D+01
 Gap=     0.288 Goal=   None    Shift=    0.000
 RMSDP=3.97D-06 MaxDP=1.76D-05 DE=-1.81D-06 OVMax= 7.97D-06

 Cycle   7  Pass 1  IDiag  1:
 E= -151.477320543302     Delta-E=       -0.000000000130 Rises=F Damp=F
 DIIS: error= 6.41D-07 at cycle   2 NSaved=   2.
 NSaved= 2 IEnMin= 2 EnMin= -151.477320543302     IErMin= 2 ErrMin= 6.41D-07
 ErrMax= 6.41D-07 EMaxC= 1.00D-01 BMatC= 1.58D-11 BMatP= 6.88D-11
 IDIUse=1 WtCom= 1.00D+00 WtEn= 0.00D+00
 Coeff-Com:  0.236D+00 0.764D+00
 Coeff:      0.236D+00 0.764D+00
 Gap=     0.288 Goal=   None    Shift=    0.000
 RMSDP=2.55D-07 MaxDP=1.28D-06 DE=-1.30D-10 OVMax= 2.04D-06

 Cycle   8  Pass 1  IDiag  1:
 E= -151.477320543313     Delta-E=       -0.000000000011 Rises=F Damp=F
 DIIS: error= 4.62D-07 at cycle   3 NSaved=   3.
 NSaved= 3 IEnMin= 3 EnMin= -151.477320543313     IErMin= 3 ErrMin= 4.62D-07
 ErrMax= 4.62D-07 EMaxC= 1.00D-01 BMatC= 7.13D-12 BMatP= 1.58D-11
 IDIUse=1 WtCom= 1.00D+00 WtEn= 0.00D+00
 Coeff-Com: -0.455D-01 0.397D+00 0.649D+00
 Coeff:     -0.455D-01 0.397D+00 0.649D+00
 Gap=     0.288 Goal=   None    Shift=    0.000
 RMSDP=9.88D-08 MaxDP=5.69D-07 DE=-1.07D-11 OVMax= 8.30D-07

 Cycle   9  Pass 1  IDiag  1:
 E= -151.477320543318     Delta-E=       -0.000000000006 Rises=F Damp=F
 DIIS: error= 2.60D-08 at cycle   4 NSaved=   4.
 NSaved= 4 IEnMin= 4 EnMin= -151.477320543318     IErMin= 4 ErrMin= 2.60D-08
 ErrMax= 2.60D-08 EMaxC= 1.00D-01 BMatC= 1.81D-14 BMatP= 7.13D-12
 IDIUse=1 WtCom= 1.00D+00 WtEn= 0.00D+00
 Coeff-Com: -0.143D-01 0.891D-02 0.351D-01 0.970D+00
 Coeff:     -0.143D-01 0.891D-02 0.351D-01 0.970D+00
 Gap=     0.288 Goal=   None    Shift=    0.000
 RMSDP=1.53D-08 MaxDP=8.20D-08 DE=-5.57D-12 OVMax= 2.27D-07

 Cycle  10  Pass 1  IDiag  1:
 E= -151.477320543318     Delta-E=        0.000000000000 Rises=F Damp=F
 DIIS: error= 4.14D-09 at cycle   5 NSaved=   5.
 NSaved= 5 IEnMin= 5 EnMin= -151.477320543318     IErMin= 5 ErrMin= 4.14D-09
 ErrMax= 4.14D-09 EMaxC= 1.00D-01 BMatC= 2.68D-16 BMatP= 1.81D-14
 IDIUse=1 WtCom= 1.00D+00 WtEn= 0.00D+00
 Coeff-Com:  0.168D-02-0.941D-02-0.122D-01-0.683D-01 0.109D+01
 Coeff:      0.168D-02-0.941D-02-0.122D-01-0.683D-01 0.109D+01
 Gap=     0.288 Goal=   None    Shift=    0.000
 RMSDP=2.63D-09 MaxDP=1.21D-08 DE=-2.27D-13 OVMax= 4.00D-08

 SCF Done:  E(RB3LYP) =  -151.477320543     A.U. after   10 cycles
             Convg  =    0.2625D-08             -V/T =  2.0050
 KE= 1.507248416506D+02 PE=-4.303259275318D+02 EE= 9.212545856075D+01
 Leave Link  502 at Mon Feb 25 10:33:38 2019, MaxMem=   33554432 cpu:       2.0
 (Enter D:\G09W\l801.exe)
 Range of M.O.s used for correlation:     1    22
 NBasis=    22 NAE=     9 NBE=     9 NFC=     0 NFV=     0
 NROrb=     22 NOA=     9 NOB=     9 NVA=    13 NVB=    13
 Leave Link  801 at Mon Feb 25 10:33:39 2019, MaxMem=   33554432 cpu:       0.0
 (Enter D:\G09W\l1101.exe)
 Using compressed storage, NAtomX=     4.
 Will process   5 centers per pass.
 Leave Link 1101 at Mon Feb 25 10:33:39 2019, MaxMem=   33554432 cpu:       0.0
 (Enter D:\G09W\l1102.exe)
 Symmetrizing basis deriv contribution to polar:
 IMax=3 JMax=2 DiffMx= 0.00D+00
 Leave Link 1102 at Mon Feb 25 10:33:39 2019, MaxMem=   33554432 cpu:       0.0
 (Enter D:\G09W\l1110.exe)
 Forming Gx(P) for the SCF density, NAtomX=     4.
 Integral derivatives from FoFDir/FoFCou, PRISM(SPDF).
 Do as many integral derivatives as possible in FoFDir.
 G2DrvN: MDV=      33554354.
 G2DrvN: will do     5 centers at a time, making    1 passes doing MaxLOS=1.
 Calling FoFCou, ICntrl=  3107 FMM=F I1Cent=   0 AccDes= 0.00D+00.
 FoFCou: FMM=F IPFlag=           0 FMFlag=      100000 FMFlg1=           0
         NFxFlg=           0 DoJE=F BraDBF=F KetDBF=F FulRan=T
         Omega=  0.000000  0.000000  1.000000  0.000000  0.000000 ICntrl=    3107 IOpCl=  0
         NMat0=    1 NMatS0=    1 NMatT0=    0 NMatD0=    1 NMtDS0=    0 NMtDT0=    0
         I1Cent=           0 NGrid=           0.
 Symmetry not used in FoFCou.
 FoFDir/FoFCou used for L=0 through L=1.
 End of G2Drv Frequency-dependent properties file   721 does not exist.
 End of G2Drv Frequency-dependent properties file   722 does not exist.
 Leave Link 1110 at Mon Feb 25 10:33:41 2019, MaxMem=   33554432 cpu:       2.0
 (Enter D:\G09W\l1002.exe)
 Minotr:  Closed shell wavefunction.
          IDoAtm=1111
          Direct CPHF calculation.
          Differentiating once with respect to electric field.
                with respect to dipole field.
          Differentiating once with respect to nuclear coordinates.
          Requested convergence is 1.0D-08 RMS, and 1.0D-07 maximum.
          Secondary convergence is 1.0D-12 RMS, and 1.0D-12 maximum.
          NewPWx=T KeepS1=F KeepF1=F KeepIn=T MapXYZ=F SortEE=F KeepMc=T.
          MDV=      33554400 using IRadAn=       1.
 Generate precomputed XC quadrature information.
          Keep R1 ints in memory in canonical form, NReq=833182.
 Symmetry not used in FoFDir.
 MinBra= 0 MaxBra= 1 Meth= 1.
 IRaf=       0 NMat=   1 IRICut=       1 DoRegI=T DoRafI=F ISym2E= 0 JSym2E=0.
          Solving linear equations simultaneously, MaxMat=       0.
          There are    15 degrees of freedom in the 1st order CPHF.  IDoFFX=5.
     12 vectors produced by pass  0 Test12= 7.80D-16 6.67D-09 XBig12= 1.30D+01 3.05D+00.
 AX will form    12 AO Fock derivatives at one time.
     12 vectors produced by pass  1 Test12= 7.80D-16 6.67D-09 XBig12= 4.18D+00 7.57D-01.
     12 vectors produced by pass  2 Test12= 7.80D-16 6.67D-09 XBig12= 1.62D-03 1.13D-02.
     12 vectors produced by pass  3 Test12= 7.80D-16 6.67D-09 XBig12= 7.43D-07 2.84D-04.
     12 vectors produced by pass  4 Test12= 7.80D-16 6.67D-09 XBig12= 2.59D-10 5.31D-06.
      3 vectors produced by pass  5 Test12= 7.80D-16 6.67D-09 XBig12= 5.67D-14 6.59D-08.
 Inverted reduced A of dimension    63 with in-core refinement.
 FullF1:  Do perturbations    1 to     3.
 Isotropic polarizability for W=    0.000000        9.46 Bohr**3.
 End of Minotr Frequency-dependent properties file   721 does not exist.
 End of Minotr Frequency-dependent properties file   722 does not exist.
 Leave Link 1002 at Mon Feb 25 10:33:43 2019, MaxMem=   33554432 cpu:       2.0
 (Enter D:\G09W\l601.exe)
 Copying SCF densities to generalized density rwf, IOpCl= 0 IROHF=0.

 **********************************************************************

            Population analysis using the SCF density.

 **********************************************************************

 Alpha  occ. eigenvalues --  -19.21233 -19.21229  -1.13040  -0.90598  -0.51827
 Alpha  occ. eigenvalues --   -0.48323  -0.42334  -0.30619  -0.30372
 Alpha virt. eigenvalues --   -0.01537   0.03631   0.09190   0.77260   0.78029
 Alpha virt. eigenvalues --    0.85071   0.86788   0.95942   0.98221   1.02969
 Alpha virt. eigenvalues --    1.03192   1.42960   1.59860
          Condensed to atoms (all electrons):
              1          2          3          4
     1  O    8.172295   0.040543   0.209095  -0.034767
     2  O    0.040543   8.172295  -0.034767   0.209095
     3  H    0.209095  -0.034767   0.440562  -0.002056
     4  H   -0.034767   0.209095  -0.002056   0.440562
 Mulliken atomic charges:
              1
     1  O   -0.387166
     2  O   -0.387166
     3  H    0.387166
     4  H    0.387166
 Sum of Mulliken atomic charges =   0.00000
 Mulliken charges with hydrogens summed into heavy atoms:
              1
     1  O    0.000000
     2  O    0.000000
 Sum of Mulliken charges with hydrogens summed into heavy atoms =   0.00000
 APT atomic charges:
              1
     1  O   -0.221915
     2  O   -0.221915
     3  H    0.221915
     4  H    0.221915
 Sum of APT charges=   0.00000
 APT Atomic charges with hydrogens summed into heavy atoms:
              1
     1  O    0.000000
     2  O    0.000000
     3  H    0.000000
     4  H    0.000000
 Sum of APT charges=   0.00000
 Electronic spatial extent (au):  <R**2>=            104.0772
 Charge=              0.0000 electrons
 Dipole moment (field-independent basis, Debye):
    X=              2.0014    Y=              2.0014    Z=              0.0000  Tot=              2.8304
 Quadrupole moment (field-independent basis, Debye-Ang):
   XX=            -10.3071   YY=            -10.3071   ZZ=            -12.5019
   XY=              0.0009   XZ=             -0.0835   YZ=              3.0856
 Traceless Quadrupole moment (field-independent basis, Debye-Ang):
   XX=              0.7316   YY=              0.7316   ZZ=             -1.4632
   XY=              0.0009   XZ=             -0.0835   YZ=              3.0856
 Octapole moment (field-independent basis, Debye-Ang**2):
  XXX=              0.4456  YYY=              0.4456  ZZZ=            -28.1293  XYY=             -0.4065
  XXY=             -0.4065  XXZ=             -9.4900  XZZ=             -0.3225  YZZ=              4.4312
  YYZ=             -5.9707  XYZ=              0.0007
 Hexadecapole moment (field-independent basis, Debye-Ang**3):
 XXXX=             -9.1380 YYYY=             -9.1380 ZZZZ=            -88.3223 XXXY=              0.0044
 XXXZ=             -0.0082 YYYX=              0.0044 YYYZ=              0.6765 ZZZX=              0.1610
 ZZZY=              5.7062 XXYY=             -3.6930 XXZZ=            -17.7168 YYZZ=            -12.4378
 XXYZ=             -0.5981 YYXZ=             -0.0116 ZZXY=             -0.0035
 N-N= 3.599830677711D+01 E-N=-4.303259274483D+02  KE= 1.507248416506D+02
  Exact polarizability:   7.092  -0.179   7.092  -1.128   1.128  14.183
 Approx polarizability:   8.580  -0.016   8.580  -0.281   0.281  22.666
 No NMR shielding tensors so no spin-rotation constants.
 Leave Link  601 at Mon Feb 25 10:33:43 2019, MaxMem=   33554432 cpu:       0.0
 (Enter D:\G09W\l701.exe)
 Compute integral second derivatives.
 ... and contract with generalized density number  0.
 Leave Link  701 at Mon Feb 25 10:33:44 2019, MaxMem=   33554432 cpu:       0.0
 (Enter D:\G09W\l702.exe)
 L702 exits ... SP integral derivatives will be done elsewhere.
 Leave Link  702 at Mon Feb 25 10:33:44 2019, MaxMem=   33554432 cpu:       0.0
 (Enter D:\G09W\l703.exe)
 Compute integral second derivatives, UseDBF=F ICtDFT=           0.
 Integral derivatives from FoFDir, PRISM(SPDF).
 Calling FoFJK, ICntrl=    100127 FMM=F ISym2X=0 I1Cent= 0 IOpClX= 0 NMat=1 NMatS=1 NMatT=0.
 FoFCou: FMM=F IPFlag=           0 FMFlag=      100000 FMFlg1=         800
         NFxFlg=           0 DoJE=F BraDBF=F KetDBF=F FulRan=T
         Omega=  0.000000  0.000000  1.000000  0.000000  0.000000 ICntrl=  100127 IOpCl=  0
         NMat0=    1 NMatS0=    1 NMatT0=    0 NMatD0=    1 NMtDS0=    0 NMtDT0=    0
         I1Cent=           0 NGrid=           0.
 Symmetry not used in FoFCou.
 Leave Link  703 at Mon Feb 25 10:33:47 2019, MaxMem=   33554432 cpu:       3.0
 (Enter D:\G09W\l716.exe)
 Dipole        = 7.87399810D-01 7.87399810D-01 2.12025952D-11
 Polarizability= 7.09171492D+00-1.79058687D-01 7.09171492D+00
                -1.12793003D+00 1.12793003D+00 1.41828084D+01
 Full mass-weighted force constant matrix:
 Low frequencies --- -248.0169 -235.6540    0.0014    0.0014    0.0021  447.1586
 Low frequencies ---  650.7579  902.2900 1385.3389
 Harmonic frequencies (cm**-1), IR intensities (KM/Mole), Raman scattering
 activities (A**4/AMU), depolarization ratios for plane and unpolarized
 incident light, reduced masses (AMU), force constants (mDyne/A),
 and normal coordinates:
                     1                      2                      3
                     A                      A                      A
 Frequencies --   642.6030               901.4262              1384.7334
 Red. masses --     1.0738                 8.8362                 1.1190
 Frc consts  --     0.2612                 4.2303                 1.2641
 IR Inten    --   135.3465                 0.0622               108.5753
  Atom  AN      X      Y      Z        X      Y      Z        X      Y      Z
     1   8     0.00   0.05  -0.01     0.02  -0.01   0.51    -0.03  -0.03  -0.04
     2   8     0.05   0.00   0.01    -0.01   0.02  -0.51     0.03   0.03  -0.04
     3   1    -0.01  -0.70   0.04    -0.03  -0.14  -0.47     0.00   0.00   0.70
     4   1    -0.70  -0.01  -0.04    -0.14  -0.03   0.47     0.00   0.00   0.70
                     4                      5                      6
                     A                      A                      A
 Frequencies --  1454.7984              3377.7885              3381.5830
 Red. masses --     1.1096                 1.0646                 1.0643
 Frc consts  --     1.3837                 7.1565                 7.1705
 IR Inten    --     0.2272                 4.2038                 0.6575
  Atom  AN      X      Y      Z        X      Y      Z        X      Y      Z
     1   8     0.03  -0.03  -0.04    -0.04   0.00   0.00     0.04   0.00   0.00
     2   8    -0.03   0.03   0.04     0.00   0.04   0.00     0.00   0.04   0.00
     3   1     0.00  -0.06  -0.70     0.71   0.00  -0.02    -0.71   0.01   0.03
     4   1    -0.06   0.00   0.70     0.00  -0.71  -0.02     0.01  -0.71  -0.03

 -------------------
 - Thermochemistry -
 -------------------
 Temperature   298.150 Kelvin.  Pressure   1.00000 Atm.
 Atom     1 has atomic number  8 and mass  15.99491
 Atom     2 has atomic number  8 and mass  15.99491
 Atom     3 has atomic number  1 and mass   1.00783
 Atom     4 has atomic number  1 and mass   1.00783
 Molecular mass:    34.00548 amu.
 Principal axes and moments of inertia in atomic units:
                           1         2         3
     Eigenvalues --     6.76027  71.90663  71.91772
           X           -0.04150   0.70711   0.70589
           Y            0.04150   0.70711  -0.70589
           Z            0.99828   0.00000   0.05869
 This molecule is an asymmetric top.
 Rotational symmetry number  2.
 Rotational temperatures (Kelvin)     12.81218     1.20453     1.20435
 Rotational constants (GHZ):         266.96276    25.09840    25.09453
 Zero-point vibrational energy      66649.5 (Joules/Mol)
                                   15.92962 (Kcal/Mol)
 Vibrational temperatures:    924.56  1296.95  1992.32  2093.13  4859.88
          (Kelvin)           4865.34
 
 Zero-point correction=                           0.025385 (Hartree/Particle)
 Thermal correction to Energy=                    0.028424
 Thermal correction to Enthalpy=                  0.029368
 Thermal correction to Gibbs Free Energy=         0.003769
 Sum of electronic and zero-point Energies=           -151.451935
 Sum of electronic and thermal Energies=              -151.448897
 Sum of electronic and thermal Enthalpies=            -151.447953
 Sum of electronic and thermal Free Energies=         -151.473552
 
                     E (Thermal)             CV                S
                      KCal/Mol        Cal/Mol-Kelvin    Cal/Mol-Kelvin
 Total                   17.836              7.602             53.877
 Electronic               0.000              0.000              0.000
 Translational            0.889              2.981             36.503
 Rotational               0.889              2.981             16.821
 Vibrational             16.059              1.640              0.554
                       Q            Log10(Q)             Ln(Q)
 Total Bot       0.184703D-01         -1.733527         -3.991593
 Total V=0       0.876906D+10          9.942953         22.894495
 Vib (Bot)       0.223920D-11        -11.649906        -26.824901
 Vib (V=0)       0.106310D+01          0.026573          0.061187
 Electronic      0.100000D+01          0.000000          0.000000
 Translational   0.779433D+07          6.891779         15.868907
 Rotational      0.105828D+04          3.024601          6.964401
 
                                                           HF Hess of H2O2
                                                             IR Spectrum
 
     33                                                                       1 1                                                    
     33                                                                       4 3                  9        6                        
     87                                                                       5 8                  0        4                        
     28                                                                       5 5                  1        3                        
 
     XX                                                                       X X                  X        X                        
                                                                                X                           X                        
                                                                                X                           X                        
                                                                                X                           X                        
                                                                                X                           X                        
                                                                                X                           X                        
                                                                                X                           X                        
                                                                                X                           X                        
                                                                                X                           X                        
                                                                                X                           X                        
                                                                                X                           X                        
                                                                                X                           X                        
                                                                                X                           X                        
                                                                                X                           X                        
                                                                                X                           X                        
                                                                                X                           X                        
                                                                                                            X                        
                                                                                                            X                        
                                                                                                            X                        
                                                                                                            X                        
 
 -------------------------------------------------------------------
 Center     Atomic                   Forces (Hartrees/Bohr)
 Number     Number              X              Y              Z
 -------------------------------------------------------------------
      1        8           0.027195516   -0.010715653   -0.017646569
      2        8          -0.010715653    0.027195516    0.017646569
      3        1          -0.009996381   -0.006483481   -0.025799016
      4        1          -0.006483481   -0.009996381    0.025799016
 -------------------------------------------------------------------
 Cartesian Forces:  Max     0.027195516 RMS     0.018135486
 Z-matrix is all fixed cartesians, so copy forces.
 Force constants in Cartesian coordinates: 
                1             2             3             4             5 
      1  0.421369D+00
      2 -0.534924D-02  0.374878D-01
      3 -0.181685D-01  0.394055D-01  0.300865D+00
      4 -0.213105D-01  0.356846D-02  0.779280D-03  0.374878D-01
      5  0.224997D-02 -0.213105D-01 -0.429467D-01 -0.534924D-02  0.421369D+00
      6  0.429467D-01 -0.779280D-03 -0.234201D+00 -0.394055D-01  0.181685D-01
      7 -0.408495D+00  0.420039D-02  0.168016D-01  0.638878D-03  0.333499D-03
      8  0.276577D-02 -0.168162D-01  0.587160D-03 -0.241961D-02  0.843679D-02
      9 -0.286531D-01  0.172274D-02 -0.123441D-01  0.403490D-01 -0.387486D-02
     10  0.843679D-02 -0.241961D-02  0.587599D-03 -0.168162D-01  0.276577D-02
     11  0.333499D-03  0.638878D-03  0.295401D-02  0.420039D-02 -0.408495D+00
     12  0.387486D-02 -0.403490D-01 -0.543194D-01 -0.172274D-02  0.286531D-01
                6             7             8             9            10 
      6  0.300865D+00
      7 -0.295401D-02  0.409360D+00
      8 -0.587599D-03 -0.493489D-02  0.988346D-02
      9 -0.543194D-01 -0.149497D-01  0.325428D-02  0.706976D-01
     10 -0.587160D-03 -0.150405D-02  0.458873D-02  0.325384D-02  0.988346D-02
     11 -0.168016D-01  0.400998D-03 -0.150405D-02 -0.110216D-02 -0.493489D-02
     12 -0.123441D-01  0.110216D-02 -0.325384D-02 -0.403411D-02 -0.325428D-02
               11            12 
     11  0.409360D+00
     12  0.149497D-01  0.706976D-01
 Leave Link  716 at Mon Feb 25 10:33:48 2019, MaxMem=   33554432 cpu:       0.0
 (Enter D:\G09W\l103.exe)

 GradGradGradGradGradGradGradGradGradGradGradGradGradGradGradGradGradGrad
 Berny optimization.
 Search for a local minimum.
 Step number   1 out of a maximum of    2
 All quantities printed in internal units (Hartrees-Bohrs-Radians)
 Second derivative matrix not updated -- analytic derivatives used.
 The second derivative matrix:
                          X1        Y1        Z1        X2        Y2
           X1           0.42137
           Y1          -0.00535   0.03749
           Z1          -0.01817   0.03941   0.30086
           X2          -0.02131   0.00357   0.00078   0.03749
           Y2           0.00225  -0.02131  -0.04295  -0.00535   0.42137
           Z2           0.04295  -0.00078  -0.23420  -0.03941   0.01817
           X3          -0.40850   0.00420   0.01680   0.00064   0.00033
           Y3           0.00277  -0.01682   0.00059  -0.00242   0.00844
           Z3          -0.02865   0.00172  -0.01234   0.04035  -0.00387
           X4           0.00844  -0.00242   0.00059  -0.01682   0.00277
           Y4           0.00033   0.00064   0.00295   0.00420  -0.40850
           Z4           0.00387  -0.04035  -0.05432  -0.00172   0.02865
                          Z2        X3        Y3        Z3        X4
           Z2           0.30086
           X3          -0.00295   0.40936
           Y3          -0.00059  -0.00493   0.00988
           Z3          -0.05432  -0.01495   0.00325   0.07070
           X4          -0.00059  -0.00150   0.00459   0.00325   0.00988
           Y4          -0.01680   0.00040  -0.00150  -0.00110  -0.00493
           Z4          -0.01234   0.00110  -0.00325  -0.00403  -0.00325
                          Y4        Z4
           Y4           0.40936
           Z4           0.01495   0.07070
 ITU=  0
     Eigenvalues ---    0.02651   0.09774   0.13587   0.52802   0.67359
     Eigenvalues ---    0.69001
 Quadratic step=5.927D-01 exceeds max=3.000D-01 adjusted using Lamda=-5.071D-02.
 Angle between NR and scaled steps=  18.67 degrees.
 Angle between quadratic step and forces=  43.17 degrees.
 Linear search not attempted -- first point.
 TrRot=  0.029642 -0.004592  0.000207 -0.785398 -0.017081  0.785398
 Variable       Old X    -DE/DX   Delta X   Delta X   Delta X     New X
                                 (Linear)    (Quad)   (Total)
    X1        0.00000   0.02720   0.00000   0.04247   0.07224   0.07224
    Y1        0.00000  -0.01072   0.00000  -0.01507  -0.01979  -0.01979
    Z1        0.00000  -0.01765   0.00000  -0.01112  -0.01021  -0.01021
    X2        0.00000  -0.01072   0.00000  -0.01507  -0.01979  -0.01979
    Y2        0.00000   0.02720   0.00000   0.04247   0.07224   0.07224
    Z2        2.83459   0.01765   0.00000   0.01112   0.01021   2.84480
    X3        1.88973  -0.01000   0.00000   0.00626   0.03805   1.92778
    Y3        0.00000  -0.00648   0.00000  -0.08377  -0.09050  -0.09050
    Z3        0.00000  -0.02580   0.00000  -0.18959  -0.16544  -0.16544
    X4        0.00000  -0.00648   0.00000  -0.08377  -0.09050  -0.09050
    Y4        1.88973  -0.01000   0.00000   0.00626   0.03805   1.92778
    Z4        2.83459   0.02580   0.00000   0.18959   0.16544   3.00003
         Item               Value     Threshold  Converged?
 Maximum Force            0.027196     0.000450     NO 
 RMS     Force            0.018135     0.000300     NO 
 Maximum Displacement     0.165441     0.001800     NO 
 RMS     Displacement     0.084385     0.001200     NO 
 Predicted change in Energy=-9.284127D-03
 GradGradGradGradGradGradGradGradGradGradGradGradGradGradGradGradGradGrad

 Leave Link  103 at Mon Feb 25 10:33:48 2019, MaxMem=   33554432 cpu:       0.0
 (Enter D:\G09W\l9999.exe)
 1|1|UNPC-DESKTOP-8BRL880|Freq|RB3LYP|6-31G|H2O2|AJZ34|25-Feb-2019|0||#
 p B3LYP/6-31G nosymm Freq Integral(Grid=UltraFine)||HF Hess of H2O2||0
 ,1|O,0.,0.,0.|O,0.,0.,1.5|H,1.,0.,0.|H,0.,1.,1.5||Version=IA32W-G09Rev
 B.01|HF=-151.4773205|RMSD=2.625e-009|RMSF=1.814e-002|ZeroPoint=0.02538
 55|Thermal=0.0284236|Dipole=0.7873998,0.7873998,0.|DipoleDeriv=-0.0104
 891,0.0017208,0.1373631,0.0307308,-0.4133009,0.1164796,0.0346365,-0.00
 64064,-0.2419537,-0.4133009,0.0307308,-0.1164796,0.0017208,-0.0104891,
 -0.1373631,0.0064064,-0.0346365,-0.2419537,0.0355485,-0.004018,-0.0208
 837,-0.0284336,0.3882415,-0.0000003,-0.037597,0.003446,0.2419537,0.388
 2415,-0.0284336,0.0000003,-0.004018,0.0355485,0.0208837,-0.003446,0.03
 7597,0.2419537|Polar=7.0917149,-0.1790587,7.0917149,-1.12793,1.12793,1
 4.1828084|PG=C02 [X(H2O2)]|NImag=0||0.42136899,-0.00534924,0.03748782,
 -0.01816847,0.03940554,0.30086494,-0.02131050,0.00356846,0.00077928,0.
 03748782,0.00224997,-0.02131050,-0.04294671,-0.00534924,0.42136899,0.0
 4294671,-0.00077928,-0.23420142,-0.03940554,0.01816847,0.30086494,-0.4
 0849528,0.00420039,0.01680159,0.00063888,0.00033350,-0.00295401,0.4093
 6045,0.00276577,-0.01681620,0.00058716,-0.00241961,0.00843679,-0.00058
 760,-0.00493489,0.00988346,-0.02865310,0.00172274,-0.01234409,0.040349
 00,-0.00387486,-0.05431943,-0.01494974,0.00325428,0.07069763,0.0084367
 9,-0.00241961,0.00058760,-0.01681620,0.00276577,-0.00058716,-0.0015040
 5,0.00458873,0.00325384,0.00988346,0.00033350,0.00063888,0.00295401,0.
 00420039,-0.40849528,-0.01680159,0.00040100,-0.00150405,-0.00110216,-0
 .00493489,0.40936045,0.00387486,-0.04034900,-0.05431943,-0.00172274,0.
 02865310,-0.01234409,0.00110216,-0.00325384,-0.00403411,-0.00325428,0.
 01494974,0.07069763||-0.02719552,0.01071565,0.01764657,0.01071565,-0.0
 2719552,-0.01764657,0.00999638,0.00648348,0.02579902,0.00648348,0.0099
 9638,-0.02579902|||@


 SUCCESS IS NEVER CERTAIN,
 FAILURE IS NEVER FINAL.
 Job cpu time:  0 days  0 hours  0 minutes 16.0 seconds.
 File lengths (MBytes):  RWF=      5 Int=      0 D2E=      0 Chk=      1 Scr=      1
 Normal termination of Gaussian 09 at Mon Feb 25 10:33:48 2019.
