 Entering Link 1 = D:\G09W\l1.exe PID=     10904.
  
 Copyright (c) 1988,1990,1992,1993,1995,1998,2003,2009,2010,
            Gaussian, Inc.  All Rights Reserved.
  
 This is part of the Gaussian(R) 09 program.  It is based on
 the Gaussian(R) 03 system (copyright 2003, Gaussian, Inc.),
 the Gaussian(R) 98 system (copyright 1998, Gaussian, Inc.),
 the Gaussian(R) 94 system (copyright 1995, Gaussian, Inc.),
 the Gaussian 92(TM) system (copyright 1992, Gaussian, Inc.),
 the Gaussian 90(TM) system (copyright 1990, Gaussian, Inc.),
 the Gaussian 88(TM) system (copyright 1988, Gaussian, Inc.),
 the Gaussian 86(TM) system (copyright 1986, Carnegie Mellon
 University), and the Gaussian 82(TM) system (copyright 1983,
 Carnegie Mellon University). Gaussian is a federally registered
 trademark of Gaussian, Inc.
  
 This software contains proprietary and confidential information,
 including trade secrets, belonging to Gaussian, Inc.
  
 This software is provided under written license and may be
 used, copied, transmitted, or stored only in accord with that
 written license.
  
 The following legend is applicable only to US Government
 contracts under FAR:
  
                    RESTRICTED RIGHTS LEGEND
  
 Use, reproduction and disclosure by the US Government is
 subject to restrictions as set forth in subparagraphs (a)
 and (c) of the Commercial Computer Software - Restricted
 Rights clause in FAR 52.227-19.
  
 Gaussian, Inc.
 340 Quinnipiac St., Bldg. 40, Wallingford CT 06492
  
  
 ---------------------------------------------------------------
 Warning -- This program may not be used in any manner that
 competes with the business of Gaussian, Inc. or will provide
 assistance to any competitor of Gaussian, Inc.  The licensee
 of this program is prohibited from giving any competitor of
 Gaussian, Inc. access to this program.  By using this program,
 the user acknowledges that Gaussian, Inc. is engaged in the
 business of creating and licensing software in the field of
 computational chemistry and represents and warrants to the
 licensee that it is not a competitor of Gaussian, Inc. and that
 it will not use this program in any manner prohibited above.
 ---------------------------------------------------------------
  

 Cite this work as:
 Gaussian 09, Revision B.01,
 M. J. Frisch, G. W. Trucks, H. B. Schlegel, G. E. Scuseria, 
 M. A. Robb, J. R. Cheeseman, G. Scalmani, V. Barone, B. Mennucci, 
 G. A. Petersson, H. Nakatsuji, M. Caricato, X. Li, H. P. Hratchian, 
 A. F. Izmaylov, J. Bloino, G. Zheng, J. L. Sonnenberg, M. Hada, 
 M. Ehara, K. Toyota, R. Fukuda, J. Hasegawa, M. Ishida, T. Nakajima, 
 Y. Honda, O. Kitao, H. Nakai, T. Vreven, J. A. Montgomery, Jr., 
 J. E. Peralta, F. Ogliaro, M. Bearpark, J. J. Heyd, E. Brothers, 
 K. N. Kudin, V. N. Staroverov, T. Keith, R. Kobayashi, J. Normand, 
 K. Raghavachari, A. Rendell, J. C. Burant, S. S. Iyengar, J. Tomasi, 
 M. Cossi, N. Rega, J. M. Millam, M. Klene, J. E. Knox, J. B. Cross, 
 V. Bakken, C. Adamo, J. Jaramillo, R. Gomperts, R. E. Stratmann, 
 O. Yazyev, A. J. Austin, R. Cammi, C. Pomelli, J. W. Ochterski, 
 R. L. Martin, K. Morokuma, V. G. Zakrzewski, G. A. Voth, 
 P. Salvador, J. J. Dannenberg, S. Dapprich, A. D. Daniels, 
 O. Farkas, J. B. Foresman, J. V. Ortiz, J. Cioslowski, 
 and D. J. Fox, Gaussian, Inc., Wallingford CT, 2010.
 
 ******************************************
 Gaussian 09:  IA32W-G09RevB.01 12-Aug-2010
                05-Jan-2019 
 ******************************************
 -----------------------
 #p HF/6-31G freq nosymm
 -----------------------
 1/10=4,30=1,38=1/1,3;
 2/12=2,15=1,17=6,18=5,40=1/2;
 3/5=1,6=6,11=9,16=1,25=1,30=1,71=2/1,2,3;
 4//1;
 5/5=2,38=5,98=1/2;
 8/6=4,10=90,11=11/1;
 10/13=10,15=4,31=1/2;
 11/6=3,8=1,9=11,15=111,16=1,31=1/1,2,10;
 10/6=1,31=1/2;
 6/7=2,8=2,9=2,10=2,18=1,28=1/1;
 7/8=1,10=1,25=1,30=1/1,2,3,16;
 1/10=4,30=1/3;
 99//99;
 Leave Link    1 at Sat Jan 05 13:42:12 2019, MaxMem=          0 cpu:       0.0
 (Enter D:\G09W\l101.exe)
 ---
 H2O
 ---
 Symbolic Z-matrix:
 Charge =  0 Multiplicity = 1
 O                     1.        0.        0. 
 H                     1.        1.        0. 
 H                     1.        0.        1. 
 
 NAtoms=      3 NQM=      3 NQMF=      0 NMic=      0 NMicF=      0 NTot=      3.
                    Isotopes and Nuclear Properties:
 (Nuclear quadrupole moments (NQMom) in fm**2, nuclear magnetic moments (NMagM)
  in nuclear magnetons)

  Atom         1           2           3
 IAtWgt=          16           1           1
 AtmWgt=  15.9949146   1.0078250   1.0078250
 NucSpn=           0           1           1
 AtZEff=   0.0000000   0.0000000   0.0000000
 NQMom=    0.0000000   0.0000000   0.0000000
 NMagM=    0.0000000   2.7928460   2.7928460
 Leave Link  101 at Sat Jan 05 13:42:12 2019, MaxMem=   33554432 cpu:       0.0
 (Enter D:\G09W\l103.exe)

 GradGradGradGradGradGradGradGradGradGradGradGradGradGradGradGradGradGrad
 Berny optimization.
 Initialization pass.
 Trust Radius=3.00D-01 FncErr=1.00D-07 GrdErr=1.00D-07
 Number of steps in this run=      2 maximum allowed number of steps=      2.
 GradGradGradGradGradGradGradGradGradGradGradGradGradGradGradGradGradGrad

 Leave Link  103 at Sat Jan 05 13:42:12 2019, MaxMem=   33554432 cpu:       0.0
 (Enter D:\G09W\l202.exe)
                          Input orientation:                          
 ---------------------------------------------------------------------
 Center     Atomic      Atomic             Coordinates (Angstroms)
 Number     Number       Type             X           Y           Z
 ---------------------------------------------------------------------
      1          8           0        1.000000    0.000000    0.000000
      2          1           0        1.000000    1.000000    0.000000
      3          1           0        1.000000    0.000000    1.000000
 ---------------------------------------------------------------------
                    Distance matrix (angstroms):
                    1          2          3
     1  O    0.000000
     2  H    1.000000   0.000000
     3  H    1.000000   1.414214   0.000000
 Symmetry turned off by external request.
 Stoichiometry    H2O
 Framework group  C2V[C2(O),SGV(H2)]
 Deg. of freedom     2
 Full point group                 C2V     NOp   4
 Rotational constants (GHZ):    564.6475607    501.4551003    265.5892435
 Leave Link  202 at Sat Jan 05 13:42:12 2019, MaxMem=   33554432 cpu:       0.0
 (Enter D:\G09W\l301.exe)
 Standard basis: 6-31G (6D, 7F)
 Ernie: Thresh=  0.10000D-02 Tol=  0.10000D-05 Strict=F.
 Integral buffers will be    262144 words long.
 Raffenetti 1 integral format.
 Two-electron integral symmetry is turned off.
    13 basis functions,    30 primitive gaussians,    13 cartesian basis functions
     5 alpha electrons        5 beta electrons
       nuclear repulsion energy         8.8410201301 Hartrees.
 IExCor=    0 DFT=F Ex=HF Corr=None ExCW=0 ScaHFX=  1.000000
 ScaDFX=  1.000000  1.000000  1.000000  1.000000 ScalE2=  1.000000  1.000000
 IRadAn=      0 IRanWt=     -1 IRanGd=            0 ICorTp=0
 NAtoms=    3 NActive=    3 NUniq=    3 SFac= 1.00D+00 NAtFMM=   50 NAOKFM=F Big=F
 Leave Link  301 at Sat Jan 05 13:42:12 2019, MaxMem=   33554432 cpu:       0.0
 (Enter D:\G09W\l302.exe)
 NPDir=0 NMtPBC=     1 NCelOv=     1 NCel=       1 NClECP=     1 NCelD=      1
         NCelK=      1 NCelE2=     1 NClLst=     1 CellRange=     0.0.
 One-electron integrals computed using PRISM.
 NBasis=    13 RedAO= T  NBF=    13
 NBsUse=    13 1.00D-06 NBFU=    13
 Leave Link  302 at Sat Jan 05 13:42:13 2019, MaxMem=   33554432 cpu:       0.0
 (Enter D:\G09W\l303.exe)
 DipDrv:  MaxL=1.
 Leave Link  303 at Sat Jan 05 13:42:13 2019, MaxMem=   33554432 cpu:       0.0
 (Enter D:\G09W\l401.exe)
 Harris functional with IExCor=  205 diagonalized for initial guess.
 ExpMin= 1.61D-01 ExpMax= 5.48D+03 ExpMxC= 8.25D+02 IAcc=1 IRadAn=         1 AccDes= 0.00D+00
 HarFok:  IExCor=  205 AccDes= 0.00D+00 IRadAn=         1 IDoV= 1
 ScaDFX=  1.000000  1.000000  1.000000  1.000000
 FoFCou: FMM=F IPFlag=           0 FMFlag=      100000 FMFlg1=           0
         NFxFlg=           0 DoJE=T BraDBF=F KetDBF=T FulRan=T
         Omega=  0.000000  0.000000  1.000000  0.000000  0.000000 ICntrl=     500 IOpCl=  0
         NMat0=    1 NMatS0=    1 NMatT0=    0 NMatD0=    1 NMtDS0=    0 NMtDT0=    0
         I1Cent=           4 NGrid=           0.
 Symmetry not used in FoFCou.
 Harris En= -76.0713285260978    
 Leave Link  401 at Sat Jan 05 13:42:13 2019, MaxMem=   33554432 cpu:       0.0
 (Enter D:\G09W\l502.exe)
 Closed shell SCF:
 Requested convergence on RMS density matrix=1.00D-08 within 128 cycles.
 Requested convergence on MAX density matrix=1.00D-06.
 Requested convergence on             energy=1.00D-06.
 No special actions if energy rises.
 Using DIIS extrapolation, IDIIS=  1040.
 Two-electron integral symmetry not used.
 Keep R1 ints in memory in canonical form, NReq=823903.
 IEnd=       19703 IEndB=       19703 NGot=    33554432 MDV=    33547618
 LenX=    33547618 LenY=    33546736
 Symmetry not used in FoFDir.
 MinBra= 0 MaxBra= 1 Meth= 1.
 IRaf=       0 NMat=   1 IRICut=       1 DoRegI=T DoRafI=F ISym2E= 0 JSym2E=0.

 Cycle   1  Pass 1  IDiag  1:
 E= -75.8940288475861    
 DIIS: error= 8.89D-02 at cycle   1 NSaved=   1.
 NSaved= 1 IEnMin= 1 EnMin= -75.8940288475861     IErMin= 1 ErrMin= 8.89D-02
 ErrMax= 8.89D-02 EMaxC= 1.00D-01 BMatC= 1.01D-01 BMatP= 1.01D-01
 IDIUse=3 WtCom= 1.11D-01 WtEn= 8.89D-01
 Coeff-Com:  0.100D+01
 Coeff-En:   0.100D+01
 Coeff:      0.100D+01
 Gap=     0.571 Goal=   None    Shift=    0.000
 GapD=    0.571 DampG=2.000 DampE=0.500 DampFc=1.0000 IDamp=-1.
 RMSDP=2.28D-02 MaxDP=1.16D-01              OVMax= 1.28D-01

 Cycle   2  Pass 1  IDiag  1:
 E= -75.9421519889830     Delta-E=       -0.048123141397 Rises=F Damp=F
 DIIS: error= 5.32D-02 at cycle   2 NSaved=   2.
 NSaved= 2 IEnMin= 2 EnMin= -75.9421519889830     IErMin= 2 ErrMin= 5.32D-02
 ErrMax= 5.32D-02 EMaxC= 1.00D-01 BMatC= 3.94D-02 BMatP= 1.01D-01
 IDIUse=3 WtCom= 4.68D-01 WtEn= 5.32D-01
 Coeff-Com:  0.375D+00 0.625D+00
 Coeff-En:   0.147D+00 0.853D+00
 Coeff:      0.253D+00 0.747D+00
 Gap=     0.710 Goal=   None    Shift=    0.000
 RMSDP=1.16D-02 MaxDP=6.51D-02 DE=-4.81D-02 OVMax= 4.19D-02

 Cycle   3  Pass 1  IDiag  1:
 E= -75.9682777883345     Delta-E=       -0.026125799351 Rises=F Damp=F
 DIIS: error= 1.24D-02 at cycle   3 NSaved=   3.
 NSaved= 3 IEnMin= 3 EnMin= -75.9682777883345     IErMin= 3 ErrMin= 1.24D-02
 ErrMax= 1.24D-02 EMaxC= 1.00D-01 BMatC= 1.73D-03 BMatP= 3.94D-02
 IDIUse=3 WtCom= 8.76D-01 WtEn= 1.24D-01
 Coeff-Com: -0.392D-01 0.131D+00 0.908D+00
 Coeff-En:   0.000D+00 0.000D+00 0.100D+01
 Coeff:     -0.343D-01 0.114D+00 0.920D+00
 Gap=     0.690 Goal=   None    Shift=    0.000
 RMSDP=2.12D-03 MaxDP=1.16D-02 DE=-2.61D-02 OVMax= 1.23D-02

 Cycle   4  Pass 1  IDiag  1:
 E= -75.9696741637806     Delta-E=       -0.001396375446 Rises=F Damp=F
 DIIS: error= 1.87D-03 at cycle   4 NSaved=   4.
 NSaved= 4 IEnMin= 4 EnMin= -75.9696741637806     IErMin= 4 ErrMin= 1.87D-03
 ErrMax= 1.87D-03 EMaxC= 1.00D-01 BMatC= 2.63D-05 BMatP= 1.73D-03
 IDIUse=3 WtCom= 9.81D-01 WtEn= 1.87D-02
 Coeff-Com:  0.915D-02-0.759D-01-0.286D+00 0.135D+01
 Coeff-En:   0.000D+00 0.000D+00 0.000D+00 0.100D+01
 Coeff:      0.898D-02-0.745D-01-0.281D+00 0.135D+01
 Gap=     0.695 Goal=   None    Shift=    0.000
 RMSDP=3.81D-04 MaxDP=2.73D-03 DE=-1.40D-03 OVMax= 9.25D-04

 Cycle   5  Pass 1  IDiag  1:
 E= -75.9697006398828     Delta-E=       -0.000026476102 Rises=F Damp=F
 DIIS: error= 1.55D-04 at cycle   5 NSaved=   5.
 NSaved= 5 IEnMin= 5 EnMin= -75.9697006398828     IErMin= 5 ErrMin= 1.55D-04
 ErrMax= 1.55D-04 EMaxC= 1.00D-01 BMatC= 1.39D-07 BMatP= 2.63D-05
 IDIUse=3 WtCom= 9.98D-01 WtEn= 1.55D-03
 Coeff-Com: -0.200D-02 0.213D-01 0.717D-01-0.451D+00 0.136D+01
 Coeff-En:   0.000D+00 0.000D+00 0.000D+00 0.000D+00 0.100D+01
 Coeff:     -0.199D-02 0.213D-01 0.716D-01-0.451D+00 0.136D+01
 Gap=     0.695 Goal=   None    Shift=    0.000
 RMSDP=5.75D-05 MaxDP=3.50D-04 DE=-2.65D-05 OVMax= 2.76D-04

 Cycle   6  Pass 1  IDiag  1:
 E= -75.9697009518458     Delta-E=       -0.000000311963 Rises=F Damp=F
 DIIS: error= 1.06D-05 at cycle   6 NSaved=   6.
 NSaved= 6 IEnMin= 6 EnMin= -75.9697009518458     IErMin= 6 ErrMin= 1.06D-05
 ErrMax= 1.06D-05 EMaxC= 1.00D-01 BMatC= 1.63D-09 BMatP= 1.39D-07
 IDIUse=1 WtCom= 1.00D+00 WtEn= 0.00D+00
 Coeff-Com:  0.469D-03-0.536D-02-0.176D-01 0.121D+00-0.407D+00 0.131D+01
 Coeff:      0.469D-03-0.536D-02-0.176D-01 0.121D+00-0.407D+00 0.131D+01
 Gap=     0.695 Goal=   None    Shift=    0.000
 RMSDP=5.67D-06 MaxDP=3.15D-05 DE=-3.12D-07 OVMax= 2.65D-05

 Cycle   7  Pass 1  IDiag  1:
 E= -75.9697009552260     Delta-E=       -0.000000003380 Rises=F Damp=F
 DIIS: error= 3.08D-06 at cycle   7 NSaved=   7.
 NSaved= 7 IEnMin= 7 EnMin= -75.9697009552260     IErMin= 7 ErrMin= 3.08D-06
 ErrMax= 3.08D-06 EMaxC= 1.00D-01 BMatC= 1.01D-10 BMatP= 1.63D-09
 IDIUse=1 WtCom= 1.00D+00 WtEn= 0.00D+00
 Coeff-Com: -0.924D-04 0.120D-02 0.382D-02-0.302D-01 0.113D+00-0.545D+00
 Coeff-Com:  0.146D+01
 Coeff:     -0.924D-04 0.120D-02 0.382D-02-0.302D-01 0.113D+00-0.545D+00
 Coeff:      0.146D+01
 Gap=     0.695 Goal=   None    Shift=    0.000
 RMSDP=1.52D-06 MaxDP=6.66D-06 DE=-3.38D-09 OVMax= 9.69D-06

 Cycle   8  Pass 1  IDiag  1:
 E= -75.9697009555052     Delta-E=       -0.000000000279 Rises=F Damp=F
 DIIS: error= 4.66D-07 at cycle   8 NSaved=   8.
 NSaved= 8 IEnMin= 8 EnMin= -75.9697009555052     IErMin= 8 ErrMin= 4.66D-07
 ErrMax= 4.66D-07 EMaxC= 1.00D-01 BMatC= 3.02D-12 BMatP= 1.01D-10
 IDIUse=1 WtCom= 1.00D+00 WtEn= 0.00D+00
 Coeff-Com: -0.610D-05 0.115D-04 0.100D-03 0.797D-03-0.600D-02 0.678D-01
 Coeff-Com: -0.359D+00 0.130D+01
 Coeff:     -0.610D-05 0.115D-04 0.100D-03 0.797D-03-0.600D-02 0.678D-01
 Coeff:     -0.359D+00 0.130D+01
 Gap=     0.695 Goal=   None    Shift=    0.000
 RMSDP=3.22D-07 MaxDP=1.23D-06 DE=-2.79D-10 OVMax= 2.09D-06

 Cycle   9  Pass 1  IDiag  1:
 E= -75.9697009555145     Delta-E=       -0.000000000009 Rises=F Damp=F
 DIIS: error= 7.13D-08 at cycle   9 NSaved=   9.
 NSaved= 9 IEnMin= 9 EnMin= -75.9697009555145     IErMin= 9 ErrMin= 7.13D-08
 ErrMax= 7.13D-08 EMaxC= 1.00D-01 BMatC= 5.74D-14 BMatP= 3.02D-12
 IDIUse=1 WtCom= 1.00D+00 WtEn= 0.00D+00
 Coeff-Com:  0.139D-05-0.187D-05-0.196D-04-0.214D-03 0.137D-02-0.136D-01
 Coeff-Com:  0.769D-01-0.383D+00 0.132D+01
 Coeff:      0.139D-05-0.187D-05-0.196D-04-0.214D-03 0.137D-02-0.136D-01
 Coeff:      0.769D-01-0.383D+00 0.132D+01
 Gap=     0.695 Goal=   None    Shift=    0.000
 RMSDP=5.23D-08 MaxDP=1.53D-07 DE=-9.28D-12 OVMax= 3.56D-07

 Cycle  10  Pass 1  IDiag  1:
 E= -75.9697009555147     Delta-E=        0.000000000000 Rises=F Damp=F
 DIIS: error= 2.59D-09 at cycle  10 NSaved=  10.
 NSaved=10 IEnMin=10 EnMin= -75.9697009555147     IErMin=10 ErrMin= 2.59D-09
 ErrMax= 2.59D-09 EMaxC= 1.00D-01 BMatC= 1.23D-16 BMatP= 5.74D-14
 IDIUse=1 WtCom= 1.00D+00 WtEn= 0.00D+00
 Coeff-Com: -0.186D-06 0.650D-06 0.355D-05 0.110D-04-0.960D-04 0.114D-02
 Coeff-Com: -0.777D-02 0.433D-01-0.184D+00 0.115D+01
 Coeff:     -0.186D-06 0.650D-06 0.355D-05 0.110D-04-0.960D-04 0.114D-02
 Coeff:     -0.777D-02 0.433D-01-0.184D+00 0.115D+01
 Gap=     0.695 Goal=   None    Shift=    0.000
 RMSDP=2.60D-09 MaxDP=8.08D-09 DE=-1.85D-13 OVMax= 1.49D-08

 SCF Done:  E(RHF) =  -75.9697009555     A.U. after   10 cycles
             Convg  =    0.2602D-08             -V/T =  2.0014
 KE= 7.586210654249D+01 PE=-1.981230386479D+02 EE= 3.745021101985D+01
 Leave Link  502 at Sat Jan 05 13:42:13 2019, MaxMem=   33554432 cpu:       0.0
 (Enter D:\G09W\l801.exe)
 Range of M.O.s used for correlation:     1    13
 NBasis=    13 NAE=     5 NBE=     5 NFC=     0 NFV=     0
 NROrb=     13 NOA=     5 NOB=     5 NVA=     8 NVB=     8
 Leave Link  801 at Sat Jan 05 13:42:14 2019, MaxMem=   33554432 cpu:       0.0
 (Enter D:\G09W\l1002.exe)
 Minotr:  Closed shell wavefunction.
          Direct CPHF calculation.
          Differentiating once with respect to electric field.
                with respect to dipole field.
          Electric field/nuclear overlap derivatives assumed to be zero.
          Requested convergence is 1.0D-08 RMS, and 1.0D-07 maximum.
          Secondary convergence is 1.0D-12 RMS, and 1.0D-12 maximum.
          NewPWx=F KeepS1=T KeepF1=T KeepIn=T MapXYZ=F SortEE=F KeepMc=T.
          MDV=      33554410 using IRadAn=       2.
          Keep R1 ints in memory in canonical form, NReq=804407.
 Symmetry not used in FoFDir.
 MinBra= 0 MaxBra= 1 Meth= 1.
 IRaf=       0 NMat=   1 IRICut=       1 DoRegI=T DoRafI=F ISym2E= 0 JSym2E=0.
          Solving linear equations simultaneously, MaxMat=       0.
          There are     3 degrees of freedom in the 1st order CPHF.  IDoFFX=0.
      3 vectors produced by pass  0 Test12= 1.33D-15 3.33D-08 XBig12= 1.28D+00 5.96D-01.
 AX will form     3 AO Fock derivatives at one time.
      3 vectors produced by pass  1 Test12= 1.33D-15 3.33D-08 XBig12= 5.09D-02 1.35D-01.
      3 vectors produced by pass  2 Test12= 1.33D-15 3.33D-08 XBig12= 3.09D-03 3.18D-02.
      3 vectors produced by pass  3 Test12= 1.33D-15 3.33D-08 XBig12= 4.26D-05 3.54D-03.
      3 vectors produced by pass  4 Test12= 1.33D-15 3.33D-08 XBig12= 3.62D-07 3.63D-04.
      3 vectors produced by pass  5 Test12= 1.33D-15 3.33D-08 XBig12= 2.24D-09 2.59D-05.
      2 vectors produced by pass  6 Test12= 1.33D-15 3.33D-08 XBig12= 1.30D-11 2.46D-06.
      1 vectors produced by pass  7 Test12= 1.33D-15 3.33D-08 XBig12= 3.20D-14 1.07D-07.
 Inverted reduced A of dimension    21 with in-core refinement.
 End of Minotr Frequency-dependent properties file   721 does not exist.
 End of Minotr Frequency-dependent properties file   722 does not exist.
 Leave Link 1002 at Sat Jan 05 13:42:14 2019, MaxMem=   33554432 cpu:       0.0
 (Enter D:\G09W\l1101.exe)
 Using compressed storage, NAtomX=     3.
 Will process   4 centers per pass.
 Leave Link 1101 at Sat Jan 05 13:42:14 2019, MaxMem=   33554432 cpu:       0.0
 (Enter D:\G09W\l1102.exe)
 Symmetrizing basis deriv contribution to polar:
 IMax=3 JMax=2 DiffMx= 0.00D+00
 Leave Link 1102 at Sat Jan 05 13:42:15 2019, MaxMem=   33554432 cpu:       0.0
 (Enter D:\G09W\l1110.exe)
 Forming Gx(P) for the SCF density, NAtomX=     3.
 Integral derivatives from FoFDir/FoFCou, PRISM(SPDF).
 Do as many integral derivatives as possible in FoFDir.
 G2DrvN: MDV=      33554360.
 G2DrvN: will do     4 centers at a time, making    1 passes doing MaxLOS=1.
 Calling FoFCou, ICntrl=  3107 FMM=F I1Cent=   0 AccDes= 0.00D+00.
 FoFCou: FMM=F IPFlag=           0 FMFlag=      100000 FMFlg1=           0
         NFxFlg=           0 DoJE=F BraDBF=F KetDBF=F FulRan=T
         Omega=  0.000000  0.000000  1.000000  0.000000  0.000000 ICntrl=    3107 IOpCl=  0
         NMat0=    1 NMatS0=    1 NMatT0=    0 NMatD0=    4 NMtDS0=    3 NMtDT0=    0
         I1Cent=           0 NGrid=           0.
 Symmetry not used in FoFCou.
 FoFDir/FoFCou used for L=0 through L=1.
 End of G2Drv Frequency-dependent properties file   721 does not exist.
 End of G2Drv Frequency-dependent properties file   722 does not exist.
 Leave Link 1110 at Sat Jan 05 13:42:15 2019, MaxMem=   33554432 cpu:       0.0
 (Enter D:\G09W\l1002.exe)
 Minotr:  Closed shell wavefunction.
          IDoAtm=111
          Direct CPHF calculation.
          Differentiating once with respect to electric field.
                with respect to dipole field.
          Differentiating once with respect to nuclear coordinates.
          Requested convergence is 1.0D-08 RMS, and 1.0D-07 maximum.
          Secondary convergence is 1.0D-12 RMS, and 1.0D-12 maximum.
          NewPWx=T KeepS1=F KeepF1=F KeepIn=T MapXYZ=F SortEE=F KeepMc=T.
          MDV=      33554406 using IRadAn=       2.
          Keep R1 ints in memory in canonical form, NReq=804442.
 Symmetry not used in FoFDir.
 MinBra= 0 MaxBra= 1 Meth= 1.
 IRaf=       0 NMat=   1 IRICut=       1 DoRegI=T DoRafI=F ISym2E= 0 JSym2E=0.
          Solving linear equations simultaneously, MaxMat=       0.
          There are    12 degrees of freedom in the 1st order CPHF.  IDoFFX=5.
 Will reuse    3 saved solutions.
      6 vectors produced by pass  0 Test12= 3.33D-16 8.33D-09 XBig12= 4.01D-02 9.18D-02.
 AX will form     6 AO Fock derivatives at one time.
      6 vectors produced by pass  1 Test12= 3.33D-16 8.33D-09 XBig12= 3.70D-03 3.35D-02.
      6 vectors produced by pass  2 Test12= 3.33D-16 8.33D-09 XBig12= 1.48D-04 7.22D-03.
      6 vectors produced by pass  3 Test12= 3.33D-16 8.33D-09 XBig12= 3.03D-07 2.94D-04.
      5 vectors produced by pass  4 Test12= 3.33D-16 8.33D-09 XBig12= 1.31D-09 1.76D-05.
      4 vectors produced by pass  5 Test12= 3.33D-16 8.33D-09 XBig12= 4.88D-12 1.59D-06.
      1 vectors produced by pass  6 Test12= 3.33D-16 8.33D-09 XBig12= 7.65D-15 4.55D-08.
 Inverted reduced A of dimension    34 with in-core refinement.
 FullF1:  Do perturbations    1 to     3.
 Isotropic polarizability for W=    0.000000        4.82 Bohr**3.
 FullF1:  Do perturbations    1 to     6.
 End of Minotr Frequency-dependent properties file   721 does not exist.
 End of Minotr Frequency-dependent properties file   722 does not exist.
 Leave Link 1002 at Sat Jan 05 13:42:15 2019, MaxMem=   33554432 cpu:       0.0
 (Enter D:\G09W\l601.exe)
 Copying SCF densities to generalized density rwf, IOpCl= 0 IROHF=0.

 **********************************************************************

            Population analysis using the SCF density.

 **********************************************************************

 Alpha  occ. eigenvalues --  -20.57924  -1.35063  -0.66123  -0.58261  -0.50654
 Alpha virt. eigenvalues --    0.18877   0.28308   0.98260   1.15879   1.16241
 Alpha virt. eigenvalues --    1.24824   1.35324   1.74498
          Condensed to atoms (all electrons):
              1          2          3
     1  O    8.269681   0.243167   0.243167
     2  H    0.243167   0.419974  -0.041148
     3  H    0.243167  -0.041148   0.419974
 Mulliken atomic charges:
              1
     1  O   -0.756015
     2  H    0.378007
     3  H    0.378007
 Sum of Mulliken atomic charges =   0.00000
 Mulliken charges with hydrogens summed into heavy atoms:
              1
     1  O    0.000000
 Sum of Mulliken charges with hydrogens summed into heavy atoms =   0.00000
 APT atomic charges:
              1
     1  O   -0.500492
     2  H    0.250246
     3  H    0.250246
 Sum of APT charges=   0.00000
 APT Atomic charges with hydrogens summed into heavy atoms:
              1
     1  O    0.000000
     2  H    0.000000
     3  H    0.000000
 Sum of APT charges=   0.00000
 Electronic spatial extent (au):  <R**2>=             55.6000
 Charge=              0.0000 electrons
 Dipole moment (field-independent basis, Debye):
    X=              0.0000    Y=              2.0267    Z=              2.0267  Tot=              2.8661
 Quadrupole moment (field-independent basis, Debye-Ang):
   XX=             -7.2938   YY=             -4.9258   ZZ=             -4.9258
   XY=              2.0267   XZ=              2.0267   YZ=             -0.0523
 Traceless Quadrupole moment (field-independent basis, Debye-Ang):
   XX=             -1.5786   YY=              0.7893   ZZ=              0.7893
   XY=              2.0267   XZ=              2.0267   YZ=             -0.0523
 Octapole moment (field-independent basis, Debye-Ang**2):
  XXX=            -21.8813  YYY=              0.4488  ZZZ=              0.4488  XYY=             -4.9258
  XXY=              1.6145  XXZ=              1.6145  XZZ=             -4.9258  YZZ=             -0.3606
  YYZ=             -0.3606  XYZ=             -0.0523
 Hexadecapole moment (field-independent basis, Debye-Ang**3):
 XXXX=            -49.0374 YYYY=             -5.4375 ZZZZ=             -5.4375 XXXY=              0.7902
 XXXZ=              0.7902 YYYX=              0.4488 YYYZ=              0.0191 ZZZX=              0.4488
 ZZZY=              0.0191 XXYY=             -7.0404 XXZZ=             -7.0404 YYZZ=             -2.4551
 XXYZ=             -0.0553 YYXZ=             -0.3606 ZZXY=             -0.3606
 N-N= 8.841020130083D+00 E-N=-1.981230386718D+02  KE= 7.586210654249D+01
  Exact polarizability:   1.322   0.000   6.570   0.000  -0.517   6.570
 Approx polarizability:   0.938   0.000   4.840   0.000   0.005   4.840
 No NMR shielding tensors so no spin-rotation constants.
 Leave Link  601 at Sat Jan 05 13:42:15 2019, MaxMem=   33554432 cpu:       0.0
 (Enter D:\G09W\l701.exe)
 Compute integral second derivatives.
 ... and contract with generalized density number  0.
 Leave Link  701 at Sat Jan 05 13:42:16 2019, MaxMem=   33554432 cpu:       0.0
 (Enter D:\G09W\l702.exe)
 L702 exits ... SP integral derivatives will be done elsewhere.
 Leave Link  702 at Sat Jan 05 13:42:16 2019, MaxMem=   33554432 cpu:       0.0
 (Enter D:\G09W\l703.exe)
 Compute integral second derivatives, UseDBF=F ICtDFT=           0.
 Integral derivatives from FoFDir, PRISM(SPDF).
 Calling FoFJK, ICntrl=    100127 FMM=F ISym2X=0 I1Cent= 0 IOpClX= 0 NMat=1 NMatS=1 NMatT=0.
 FoFCou: FMM=F IPFlag=           0 FMFlag=      100000 FMFlg1=         800
         NFxFlg=           0 DoJE=F BraDBF=F KetDBF=F FulRan=T
         Omega=  0.000000  0.000000  1.000000  0.000000  0.000000 ICntrl=  100127 IOpCl=  0
         NMat0=    1 NMatS0=    1 NMatT0=    0 NMatD0=    1 NMtDS0=    0 NMtDT0=    0
         I1Cent=           0 NGrid=           0.
 Symmetry not used in FoFCou.
 Leave Link  703 at Sat Jan 05 13:42:16 2019, MaxMem=   33554432 cpu:       0.0
 (Enter D:\G09W\l716.exe)
 Dipole        = 0.00000000D+00 7.97350660D-01 7.97350660D-01
 Polarizability= 1.32195961D+00 1.83494037D-14 6.56963343D+00
                 1.76113980D-14-5.16993803D-01 6.56963342D+00
 HyperPolar    = 1.66533454D-14 7.36947428D-01 2.18812639D-13
                 3.83170560D+01 7.36947427D-01-1.09547813D-14
                -3.18871088D+00 1.27190900D-13-3.18871083D+00
                 3.83170561D+01
 Full mass-weighted force constant matrix:
 Low frequencies --- -268.2996    0.0026    0.0028    0.0028  653.7576 1024.8209
 Low frequencies --- 1870.7469 3387.2312 3447.3423
 Harmonic frequencies (cm**-1), IR intensities (KM/Mole), Raman scattering
 activities (A**4/AMU), depolarization ratios for plane and unpolarized
 incident light, reduced masses (AMU), force constants (mDyne/A),
 and normal coordinates:
                     1                      2                      3
                     A                      A                      A
 Frequencies --  1870.7469              3383.0250              3447.3423
 Red. masses --     1.0855                 1.0671                 1.0425
 Frc consts  --     2.2384                 7.1955                 7.2996
 IR Inten    --    56.9730                 0.0451                 0.0000
 Raman Activ --    20.6437                76.2494               104.3128
 Depolar (P) --     0.3536                 0.7500                 0.1785
 Depolar (U) --     0.5225                 0.8571                 0.3029
  Atom  AN      X      Y      Z        X      Y      Z        X      Y      Z
     1   8     0.00   0.05   0.05     0.00  -0.04   0.04     0.00  -0.03  -0.03
     2   1     0.00  -0.11  -0.70     0.00   0.71   0.00     0.00   0.69  -0.15
     3   1     0.00  -0.70  -0.11     0.00   0.00  -0.71     0.00  -0.15   0.69

 -------------------
 - Thermochemistry -
 -------------------
 Temperature   298.150 Kelvin.  Pressure   1.00000 Atm.
 Atom     1 has atomic number  8 and mass  15.99491
 Atom     2 has atomic number  1 and mass   1.00783
 Atom     3 has atomic number  1 and mass   1.00783
 Molecular mass:    18.01056 amu.
 Principal axes and moments of inertia in atomic units:
                           1         2         3
     Eigenvalues --     3.19623   3.59901   6.79523
           X            0.00000   0.00000   1.00000
           Y            0.70711   0.70711   0.00000
           Z           -0.70711   0.70711   0.00000
 This molecule is an asymmetric top.
 Rotational symmetry number  2.
 Rotational temperatures (Kelvin)     27.09878    24.06602    12.74626
 Rotational constants (GHZ):         564.64756   501.45510   265.58924
 Zero-point vibrational energy      52044.2 (Joules/Mol)
                                   12.43887 (Kcal/Mol)
 Vibrational temperatures:   2691.58  4867.41  4959.95
          (Kelvin)
 
 Zero-point correction=                           0.019823 (Hartree/Particle)
 Thermal correction to Energy=                    0.022656
 Thermal correction to Enthalpy=                  0.023600
 Thermal correction to Gibbs Free Energy=         0.002045
 Sum of electronic and zero-point Energies=            -75.949878
 Sum of electronic and thermal Energies=               -75.947045
 Sum of electronic and thermal Enthalpies=             -75.946101
 Sum of electronic and thermal Free Energies=          -75.967656
 
                     E (Thermal)             CV                S
                      KCal/Mol        Cal/Mol-Kelvin    Cal/Mol-Kelvin
 Total                   14.217              5.981             45.367
 Electronic               0.000              0.000              0.000
 Translational            0.889              2.981             34.608
 Rotational               0.889              2.981             10.756
 Vibrational             12.440              0.020              0.002
                       Q            Log10(Q)             Ln(Q)
 Total Bot       0.114653D+00         -0.940615         -2.165846
 Total V=0       0.150358D+09          8.177127         18.828531
 Vib (Bot)       0.762623D-09         -9.117690        -20.994257
 Vib (V=0)       0.100012D+01          0.000052          0.000120
 Electronic      0.100000D+01          0.000000          0.000000
 Translational   0.300432D+07          6.477746         14.915562
 Rotational      0.500413D+02          1.699329          3.912849
 
                                                                 H2O
                                                             IR Spectrum
 
     3  3                                                       1                                                                    
     4  3                                                       8                                                                    
     4  8                                                       7                                                                    
     7  3                                                       1                                                                    
 
                                                                X                                                                    
                                                                X                                                                    
                                                                X                                                                    
                                                                X                                                                    
                                                                X                                                                    
                                                                X                                                                    
                                                                X                                                                    
                                                                X                                                                    
                                                                X                                                                    
                                                                X                                                                    
                                                                X                                                                    
                                                                X                                                                    
                                                                X                                                                    
                                                                X                                                                    
                                                                X                                                                    
                                                                X                                                                    
                                                                X                                                                    
                                                                X                                                                    
                                                                X                                                                    
                                                                X                                                                    
 
 
                                                                 H2O
                                                            Raman Spectrum
 
     3  3                                                       1                                                                    
     4  3                                                       8                                                                    
     4  8                                                       7                                                                    
     7  3                                                       1                                                                    
 
     X  X                                                       X                                                                    
     X  X                                                       X                                                                    
     X  X                                                       X                                                                    
     X  X                                                       X                                                                    
     X  X                                                                                                                            
     X  X                                                                                                                            
     X  X                                                                                                                            
     X  X                                                                                                                            
     X  X                                                                                                                            
     X  X                                                                                                                            
     X  X                                                                                                                            
     X  X                                                                                                                            
     X  X                                                                                                                            
     X  X                                                                                                                            
     X  X                                                                                                                            
     X                                                                                                                               
     X                                                                                                                               
     X                                                                                                                               
     X                                                                                                                               
     X                                                                                                                               
 
 -------------------------------------------------------------------
 Center     Atomic                   Forces (Hartrees/Bohr)
 Number     Number              X              Y              Z
 -------------------------------------------------------------------
      1        8           0.000000000    0.067224255    0.067224255
      2        1           0.000000000   -0.031018035   -0.036206220
      3        1           0.000000000   -0.036206220   -0.031018035
 -------------------------------------------------------------------
 Cartesian Forces:  Max     0.067224255 RMS     0.038850452
 Z-matrix is all fixed cartesians, so copy forces.
 Force constants in Cartesian coordinates: 
                1             2             3             4             5 
      1  0.711471D-01
      2  0.000000D+00  0.440149D+00
      3  0.000000D+00 -0.228849D-01  0.440149D+00
      4 -0.355735D-01  0.000000D+00  0.000000D+00  0.164140D-01
      5  0.000000D+00 -0.388171D+00  0.392884D-01  0.000000D+00  0.414387D+00
      6  0.000000D+00 -0.164036D-01 -0.519771D-01  0.000000D+00 -0.453747D-01
      7 -0.355735D-01  0.000000D+00  0.000000D+00  0.191595D-01  0.000000D+00
      8  0.000000D+00 -0.519771D-01 -0.164036D-01  0.000000D+00 -0.262152D-01
      9  0.000000D+00  0.392884D-01 -0.388171D+00  0.000000D+00  0.608630D-02
                6             7             8             9 
      6  0.781923D-01
      7  0.000000D+00  0.164140D-01
      8  0.617783D-01  0.000000D+00  0.781923D-01
      9 -0.262152D-01  0.000000D+00 -0.453747D-01  0.414387D+00
 Leave Link  716 at Sat Jan 05 13:42:17 2019, MaxMem=   33554432 cpu:       0.0
 (Enter D:\G09W\l103.exe)

 GradGradGradGradGradGradGradGradGradGradGradGradGradGradGradGradGradGrad
 Berny optimization.
 Search for a local minimum.
 Step number   1 out of a maximum of    2
 All quantities printed in internal units (Hartrees-Bohrs-Radians)
 Second derivative matrix not updated -- analytic derivatives used.
 The second derivative matrix:
                          X1        Y1        Z1        X2        Y2
           X1           0.07115
           Y1           0.00000   0.44015
           Z1           0.00000  -0.02288   0.44015
           X2          -0.03557   0.00000   0.00000   0.01641
           Y2           0.00000  -0.38817   0.03929   0.00000   0.41439
           Z2           0.00000  -0.01640  -0.05198   0.00000  -0.04537
           X3          -0.03557   0.00000   0.00000   0.01916   0.00000
           Y3           0.00000  -0.05198  -0.01640   0.00000  -0.02622
           Z3           0.00000   0.03929  -0.38817   0.00000   0.00609
                          Z2        X3        Y3        Z3
           Z2           0.07819
           X3           0.00000   0.01641
           Y3           0.06178   0.00000   0.07819
           Z3          -0.02622   0.00000  -0.04537   0.41439
 ITU=  0
     Eigenvalues ---    0.19463   0.64358   0.68306
 Quadratic step=3.558D-01 exceeds max=3.000D-01 adjusted using Lamda=-4.011D-02.
 Angle between NR and scaled steps=   2.49 degrees.
 Angle between quadratic step and forces=  38.85 degrees.
 Linear search not attempted -- first point.
 TrRot=  0.000000  0.049645  0.049645  0.000000  0.000000  0.000000
 Variable       Old X    -DE/DX   Delta X   Delta X   Delta X     New X
                                 (Linear)    (Quad)   (Total)
    X1        1.88973   0.00000   0.00000   0.00000   0.00000   1.88973
    Y1        0.00000   0.06722   0.00000   0.08146   0.13110   0.13110
    Z1        0.00000   0.06722   0.00000   0.08146   0.13110   0.13110
    X2        1.88973   0.00000   0.00000   0.00000   0.00000   1.88973
    Y2        1.88973  -0.03102   0.00000  -0.03820   0.01144   1.90117
    Z2        0.00000  -0.03621   0.00000  -0.19219  -0.14254  -0.14254
    X3        1.88973   0.00000   0.00000   0.00000   0.00000   1.88973
    Y3        0.00000  -0.03621   0.00000  -0.19219  -0.14254  -0.14254
    Z3        1.88973  -0.03102   0.00000  -0.03820   0.01144   1.90117
         Item               Value     Threshold  Converged?
 Maximum Force            0.067224     0.000450     NO 
 RMS     Force            0.038850     0.000300     NO 
 Maximum Displacement     0.142542     0.001800     NO 
 RMS     Displacement     0.091453     0.001200     NO 
 Predicted change in Energy=-1.542507D-02
 GradGradGradGradGradGradGradGradGradGradGradGradGradGradGradGradGradGrad

 Leave Link  103 at Sat Jan 05 13:42:17 2019, MaxMem=   33554432 cpu:       0.0
 (Enter D:\G09W\l9999.exe)
 1|1|UNPC-DESKTOP-8BRL880|Freq|RHF|6-31G|H2O1|AJZ34|05-Jan-2019|0||#p H
 F/6-31G freq nosymm||H2O||0,1|O,1.,0.,0.|H,1.,1.,0.|H,1.,0.,1.||Versio
 n=IA32W-G09RevB.01|HF=-75.969701|RMSD=2.602e-009|RMSF=3.885e-002|ZeroP
 oint=0.0198226|Thermal=0.0226562|Dipole=0.,0.7973507,0.7973507|DipoleD
 eriv=-0.8438796,0.,0.,0.,-0.3287981,0.061511,0.,0.061511,-0.3287981,0.
 4219398,0.,0.,0.,0.0026903,0.034321,0.,-0.095832,0.3261078,0.4219398,0
 .,0.,0.,0.3261078,-0.095832,0.,0.034321,0.0026903|Polar=1.3219596,0.,6
 .5696334,0.,-0.5169938,6.5696334|PolarDeriv=0.,-2.5033681,0.,-2.503368
 1,0.,0.,0.4192342,0.,-9.9039352,0.,-0.8165144,-1.0485413,0.4192342,0.,
 -1.0485414,0.,-0.8165144,-9.9039352,0.,2.7769494,0.,-0.2735813,0.,0.,-
 0.4258227,0.,9.6265493,0.,-1.0720713,0.2239926,0.0065885,0.,0.8245488,
 0.,1.8885857,0.2773859,0.,-0.2735813,0.,2.7769494,0.,0.,0.0065885,0.,0
 .2773859,0.,1.8885857,0.8245487,-0.4258227,0.,0.2239926,0.,-1.0720713,
 9.6265493|HyperPolar=0.,0.7369474,0.,38.317056,0.7369474,0.,-3.1887109
 ,0.,-3.1887108,38.3170561|PG=C02V [C2(O1),SGV(H2)]|NImag=0||0.07114709
 ,0.,0.44014855,0.,-0.02288487,0.44014856,-0.03557355,0.,0.,0.01641404,
 0.,-0.38817145,0.03928843,0.,0.41438667,0.,-0.01640356,-0.05197711,0.,
 -0.04537473,0.07819233,-0.03557355,0.,0.,0.01915951,0.,0.,0.01641404,0
 .,-0.05197711,-0.01640356,0.,-0.02621523,0.06177829,0.,0.07819233,0.,0
 .03928843,-0.38817145,0.,0.00608630,-0.02621522,0.,-0.04537473,0.41438
 667||0.,-0.06722426,-0.06722426,0.,0.03101804,0.03620622,0.,0.03620622
 ,0.03101804|||@


 I DON'T EXACTLY UNDERSTAND WHAT YOU ARE SAYING,
 BUT YOU ARE ABSOLUTELY RIGHT.
     M.S.GORDON, IN A NDSU FACULTY MEETING
 Job cpu time:  0 days  0 hours  0 minutes  5.0 seconds.
 File lengths (MBytes):  RWF=      5 Int=      0 D2E=      0 Chk=      1 Scr=      1
 Normal termination of Gaussian 09 at Sat Jan 05 13:42:17 2019.
