 Entering Link 1 = D:\G09W\l1.exe PID=     10892.
  
 Copyright (c) 1988,1990,1992,1993,1995,1998,2003,2009,2010,
            Gaussian, Inc.  All Rights Reserved.
  
 This is part of the Gaussian(R) 09 program.  It is based on
 the Gaussian(R) 03 system (copyright 2003, Gaussian, Inc.),
 the Gaussian(R) 98 system (copyright 1998, Gaussian, Inc.),
 the Gaussian(R) 94 system (copyright 1995, Gaussian, Inc.),
 the Gaussian 92(TM) system (copyright 1992, Gaussian, Inc.),
 the Gaussian 90(TM) system (copyright 1990, Gaussian, Inc.),
 the Gaussian 88(TM) system (copyright 1988, Gaussian, Inc.),
 the Gaussian 86(TM) system (copyright 1986, Carnegie Mellon
 University), and the Gaussian 82(TM) system (copyright 1983,
 Carnegie Mellon University). Gaussian is a federally registered
 trademark of Gaussian, Inc.
  
 This software contains proprietary and confidential information,
 including trade secrets, belonging to Gaussian, Inc.
  
 This software is provided under written license and may be
 used, copied, transmitted, or stored only in accord with that
 written license.
  
 The following legend is applicable only to US Government
 contracts under FAR:
  
                    RESTRICTED RIGHTS LEGEND
  
 Use, reproduction and disclosure by the US Government is
 subject to restrictions as set forth in subparagraphs (a)
 and (c) of the Commercial Computer Software - Restricted
 Rights clause in FAR 52.227-19.
  
 Gaussian, Inc.
 340 Quinnipiac St., Bldg. 40, Wallingford CT 06492
  
  
 ---------------------------------------------------------------
 Warning -- This program may not be used in any manner that
 competes with the business of Gaussian, Inc. or will provide
 assistance to any competitor of Gaussian, Inc.  The licensee
 of this program is prohibited from giving any competitor of
 Gaussian, Inc. access to this program.  By using this program,
 the user acknowledges that Gaussian, Inc. is engaged in the
 business of creating and licensing software in the field of
 computational chemistry and represents and warrants to the
 licensee that it is not a competitor of Gaussian, Inc. and that
 it will not use this program in any manner prohibited above.
 ---------------------------------------------------------------
  

 Cite this work as:
 Gaussian 09, Revision B.01,
 M. J. Frisch, G. W. Trucks, H. B. Schlegel, G. E. Scuseria, 
 M. A. Robb, J. R. Cheeseman, G. Scalmani, V. Barone, B. Mennucci, 
 G. A. Petersson, H. Nakatsuji, M. Caricato, X. Li, H. P. Hratchian, 
 A. F. Izmaylov, J. Bloino, G. Zheng, J. L. Sonnenberg, M. Hada, 
 M. Ehara, K. Toyota, R. Fukuda, J. Hasegawa, M. Ishida, T. Nakajima, 
 Y. Honda, O. Kitao, H. Nakai, T. Vreven, J. A. Montgomery, Jr., 
 J. E. Peralta, F. Ogliaro, M. Bearpark, J. J. Heyd, E. Brothers, 
 K. N. Kudin, V. N. Staroverov, T. Keith, R. Kobayashi, J. Normand, 
 K. Raghavachari, A. Rendell, J. C. Burant, S. S. Iyengar, J. Tomasi, 
 M. Cossi, N. Rega, J. M. Millam, M. Klene, J. E. Knox, J. B. Cross, 
 V. Bakken, C. Adamo, J. Jaramillo, R. Gomperts, R. E. Stratmann, 
 O. Yazyev, A. J. Austin, R. Cammi, C. Pomelli, J. W. Ochterski, 
 R. L. Martin, K. Morokuma, V. G. Zakrzewski, G. A. Voth, 
 P. Salvador, J. J. Dannenberg, S. Dapprich, A. D. Daniels, 
 O. Farkas, J. B. Foresman, J. V. Ortiz, J. Cioslowski, 
 and D. J. Fox, Gaussian, Inc., Wallingford CT, 2010.
 
 ******************************************
 Gaussian 09:  IA32W-G09RevB.01 12-Aug-2010
                16-Feb-2019 
 ******************************************
 --------------------------------------------------------
 #t HF/6-31G nosymm Force(EnOnly, StepSize=1) IOp(1/33=1)
 --------------------------------------------------------
 ONIOM data not found on unit 2.
 --------------
 HF Grad of H2O
 --------------
 Symbolic Z-matrix:
 Charge =  0 Multiplicity = 1
 O                     1.        0.        0. 
 H                     1.        1.        0. 
 H                     1.        0.        1. 
 
 PrtBox:  NBox=     1 Levels=  1 BoxLen=    8.00 SMaxX=        1.89
          Shift=           -1.889726            0.000000            0.000000
 Box      1 Number                   0 centers from      1 to      3:
 ITRead=  0  0  0
 MicOpt= -1 -1 -1
 No MM parameters found.
 Numerical differentiation of energy to produce forces.
 Step-Size= 0.000100 angstroms.
 Leave EnFreq:  IXYZ= 0 JXYZ= 0 IStep= 0.
                    Distance matrix (angstroms):
                    1          2          3
     1  O    0.000000
     2  H    1.000000   0.000000
     3  H    1.000000   1.414214   0.000000
 Symmetry turned off by external request.
 Framework group  C2V[C2(O),SGV(H2)]
 Deg. of freedom     2
 Rotational constants (GHZ):    564.6475607    501.4551003    265.5892435
    13 basis functions,    30 primitive gaussians,    13 cartesian basis functions
     5 alpha electrons        5 beta electrons
       nuclear repulsion energy         8.8410201301 Hartrees.
 NAtoms=    3 NActive=    3 NUniq=    3 SFac= 1.00D+00 NAtFMM=   50 NAOKFM=F Big=F
 Harris functional with IExCor=  205 diagonalized for initial guess.
 ExpMin= 1.61D-01 ExpMax= 5.48D+03 ExpMxC= 8.25D+02 IAcc=1 IRadAn=         1 AccDes= 0.00D+00
 HarFok:  IExCor=  205 AccDes= 0.00D+00 IRadAn=         1 IDoV= 1
 ScaDFX=  1.000000  1.000000  1.000000  1.000000
 FoFCou: FMM=F IPFlag=           0 FMFlag=      100000 FMFlg1=           0
         NFxFlg=           0 DoJE=T BraDBF=F KetDBF=T FulRan=T
         Omega=  0.000000  0.000000  1.000000  0.000000  0.000000 ICntrl=     500 IOpCl=  0
         NMat0=    1 NMatS0=    1 NMatT0=    0 NMatD0=    1 NMtDS0=    0 NMtDT0=    0
         I1Cent=           4 NGrid=           0.
 Symmetry not used in FoFCou.
 SCF Done:  E(RHF) =  -75.9697009555     A.U. after   10 cycles
             Convg  =    0.2602D-08             -V/T =  2.0014

 **********************************************************************

            Population analysis using the SCF density.

 **********************************************************************

 Alpha  occ. eigenvalues --  -20.57924  -1.35063  -0.66123  -0.58261  -0.50654
 Alpha virt. eigenvalues --    0.18877   0.28308   0.98260   1.15879   1.16241
 Alpha virt. eigenvalues --    1.24824   1.35324   1.74498
          Condensed to atoms (all electrons):
 Mulliken atomic charges:
              1
     1  O   -0.756015
     2  H    0.378007
     3  H    0.378007
 Sum of Mulliken atomic charges =   0.00000
 Mulliken charges with hydrogens summed into heavy atoms:
              1
     1  O    0.000000
 Sum of Mulliken charges with hydrogens summed into heavy atoms =   0.00000
 Electronic spatial extent (au):  <R**2>=             55.6000
 Charge=              0.0000 electrons
 Dipole moment (field-independent basis, Debye):
    X=              0.0000    Y=              2.0267    Z=              2.0267  Tot=              2.8661
 EnFreq: symmetry will not be used.
 Original coordinates:
 I=    1 X=   1.889726132886D+00 Y=   0.000000000000D+00 Z=   0.000000000000D+00
 I=    2 X=   1.889726132886D+00 Y=   1.889726132886D+00 Z=   0.000000000000D+00
 I=    3 X=   1.889726132886D+00 Y=   0.000000000000D+00 Z=   1.889726132886D+00
 Leave EnFreq:  IXYZ= 0 JXYZ= 1 IStep= 1.
 Current coordinates:
 I=    1 X=   1.889915105499D+00 Y=   0.000000000000D+00 Z=   0.000000000000D+00
 I=    2 X=   1.889726132886D+00 Y=   1.889726132886D+00 Z=   0.000000000000D+00
 I=    3 X=   1.889726132886D+00 Y=   0.000000000000D+00 Z=   1.889726132886D+00
    13 basis functions,    30 primitive gaussians,    13 cartesian basis functions
     5 alpha electrons        5 beta electrons
       nuclear repulsion energy         8.8410200877 Hartrees.
 NAtoms=    3 NActive=    3 NUniq=    3 SFac= 1.00D+00 NAtFMM=   50 NAOKFM=F Big=F
 Initial guess read from the read-write file.
 B after Tr=     0.000000    0.000000    0.000000
         Rot=    1.000000    0.000000    0.000000    0.000000 Ang=   0.00 deg.
 Harris functional with IExCor=  205 diagonalized for initial guess.
 ExpMin= 1.61D-01 ExpMax= 5.48D+03 ExpMxC= 8.25D+02 IAcc=1 IRadAn=         1 AccDes= 0.00D+00
 HarFok:  IExCor=  205 AccDes= 0.00D+00 IRadAn=         1 IDoV= 1
 ScaDFX=  1.000000  1.000000  1.000000  1.000000
 FoFCou: FMM=F IPFlag=           0 FMFlag=      100000 FMFlg1=           0
         NFxFlg=           0 DoJE=T BraDBF=F KetDBF=T FulRan=T
         Omega=  0.000000  0.000000  1.000000  0.000000  0.000000 ICntrl=     500 IOpCl=  0
         NMat0=    1 NMatS0=    1 NMatT0=    0 NMatD0=    1 NMtDS0=    0 NMtDT0=    0
         I1Cent=           4 NGrid=           0.
 Symmetry not used in FoFCou.
 SCF Done:  E(RHF) =  -75.9697009542     A.U. after    5 cycles
             Convg  =    0.1437D-08             -V/T =  2.0014

 **********************************************************************

            Population analysis using the SCF density.

 **********************************************************************

 Alpha  occ. eigenvalues --  -20.57924  -1.35063  -0.66123  -0.58261  -0.50654
 Alpha virt. eigenvalues --    0.18877   0.28308   0.98260   1.15879   1.16241
 Alpha virt. eigenvalues --    1.24824   1.35324   1.74498
          Condensed to atoms (all electrons):
 Mulliken atomic charges:
              1
     1  O   -0.756015
     2  H    0.378007
     3  H    0.378007
 Sum of Mulliken atomic charges =   0.00000
 Mulliken charges with hydrogens summed into heavy atoms:
              1
     1  O    0.000000
 Sum of Mulliken charges with hydrogens summed into heavy atoms =   0.00000
 Electronic spatial extent (au):  <R**2>=             55.6063
 Charge=              0.0000 electrons
 Dipole moment (field-independent basis, Debye):
    X=             -0.0004    Y=              2.0267    Z=              2.0267  Tot=              2.8661
 Leave EnFreq:  IXYZ= 0 JXYZ= 1 IStep= 2.
 Current coordinates:
 I=    1 X=   1.889537160272D+00 Y=   0.000000000000D+00 Z=   0.000000000000D+00
 I=    2 X=   1.889726132886D+00 Y=   1.889726132886D+00 Z=   0.000000000000D+00
 I=    3 X=   1.889726132886D+00 Y=   0.000000000000D+00 Z=   1.889726132886D+00
    13 basis functions,    30 primitive gaussians,    13 cartesian basis functions
     5 alpha electrons        5 beta electrons
       nuclear repulsion energy         8.8410200877 Hartrees.
 NAtoms=    3 NActive=    3 NUniq=    3 SFac= 1.00D+00 NAtFMM=   50 NAOKFM=F Big=F
 Initial guess read from the read-write file.
 B after Tr=     0.000000    0.000000    0.000000
         Rot=    1.000000    0.000000    0.000000    0.000000 Ang=   0.00 deg.
 Harris functional with IExCor=  205 diagonalized for initial guess.
 ExpMin= 1.61D-01 ExpMax= 5.48D+03 ExpMxC= 8.25D+02 IAcc=1 IRadAn=         1 AccDes= 0.00D+00
 HarFok:  IExCor=  205 AccDes= 0.00D+00 IRadAn=         1 IDoV= 1
 ScaDFX=  1.000000  1.000000  1.000000  1.000000
 FoFCou: FMM=F IPFlag=           0 FMFlag=      100000 FMFlg1=           0
         NFxFlg=           0 DoJE=T BraDBF=F KetDBF=T FulRan=T
         Omega=  0.000000  0.000000  1.000000  0.000000  0.000000 ICntrl=     500 IOpCl=  0
         NMat0=    1 NMatS0=    1 NMatT0=    0 NMatD0=    1 NMtDS0=    0 NMtDT0=    0
         I1Cent=           4 NGrid=           0.
 Symmetry not used in FoFCou.
 SCF Done:  E(RHF) =  -75.9697009542     A.U. after    5 cycles
             Convg  =    0.2877D-08             -V/T =  2.0014

 **********************************************************************

            Population analysis using the SCF density.

 **********************************************************************

 Alpha  occ. eigenvalues --  -20.57924  -1.35063  -0.66123  -0.58261  -0.50654
 Alpha virt. eigenvalues --    0.18877   0.28308   0.98260   1.15879   1.16241
 Alpha virt. eigenvalues --    1.24824   1.35324   1.74498
          Condensed to atoms (all electrons):
 Mulliken atomic charges:
              1
     1  O   -0.756015
     2  H    0.378007
     3  H    0.378007
 Sum of Mulliken atomic charges =   0.00000
 Mulliken charges with hydrogens summed into heavy atoms:
              1
     1  O    0.000000
 Sum of Mulliken charges with hydrogens summed into heavy atoms =   0.00000
 Electronic spatial extent (au):  <R**2>=             55.5937
 Charge=              0.0000 electrons
 Dipole moment (field-independent basis, Debye):
    X=              0.0004    Y=              2.0267    Z=              2.0267  Tot=              2.8661
 Status after symmetrization of IXYZ=  0 JXYZ=  1:
 Forces:
 I=    1 X=   0.000000000000D+00 Y=   0.000000000000D+00 Z=   0.000000000000D+00
 I=    2 X=   0.000000000000D+00 Y=   0.000000000000D+00 Z=   0.000000000000D+00
 I=    3 X=   0.000000000000D+00 Y=   0.000000000000D+00 Z=   0.000000000000D+00
 FFX: 
                1             2             3             4             5 
      1  0.711493D-01
      2  0.000000D+00  0.000000D+00
      3  0.000000D+00  0.000000D+00  0.000000D+00
      4  0.000000D+00  0.000000D+00  0.000000D+00  0.000000D+00
      5  0.000000D+00  0.000000D+00  0.000000D+00  0.000000D+00  0.000000D+00
      6  0.000000D+00  0.000000D+00  0.000000D+00  0.000000D+00  0.000000D+00
      7  0.000000D+00  0.000000D+00  0.000000D+00  0.000000D+00  0.000000D+00
      8  0.000000D+00  0.000000D+00  0.000000D+00  0.000000D+00  0.000000D+00
      9  0.000000D+00  0.000000D+00  0.000000D+00  0.000000D+00  0.000000D+00
                6             7             8             9 
      6  0.000000D+00
      7  0.000000D+00  0.000000D+00
      8  0.000000D+00  0.000000D+00  0.000000D+00
      9  0.000000D+00  0.000000D+00  0.000000D+00  0.000000D+00
 Flags:
       1  2  3  4  5  6  7  8  9
   1  T
   2  F  F
   3  F  F  F
   4  F  F  F  F
   5  F  F  F  F  F
   6  F  F  F  F  F  F
   7  F  F  F  F  F  F  F
   8  F  F  F  F  F  F  F  F
   9  F  F  F  F  F  F  F  F  F
 Leave EnFreq:  IXYZ= 0 JXYZ= 2 IStep= 1.
 Current coordinates:
 I=    1 X=   1.889726132886D+00 Y=   1.889726132886D-04 Z=   0.000000000000D+00
 I=    2 X=   1.889726132886D+00 Y=   1.889726132886D+00 Z=   0.000000000000D+00
 I=    3 X=   1.889726132886D+00 Y=   0.000000000000D+00 Z=   1.889726132886D+00
    13 basis functions,    30 primitive gaussians,    13 cartesian basis functions
     5 alpha electrons        5 beta electrons
       nuclear repulsion energy         8.8414434930 Hartrees.
 NAtoms=    3 NActive=    3 NUniq=    3 SFac= 1.00D+00 NAtFMM=   50 NAOKFM=F Big=F
 Initial guess read from the read-write file.
 B after Tr=     0.000000    0.000000    0.000000
         Rot=    1.000000    0.000000    0.000000    0.000000 Ang=   0.00 deg.
 Harris functional with IExCor=  205 diagonalized for initial guess.
 ExpMin= 1.61D-01 ExpMax= 5.48D+03 ExpMxC= 8.25D+02 IAcc=1 IRadAn=         1 AccDes= 0.00D+00
 HarFok:  IExCor=  205 AccDes= 0.00D+00 IRadAn=         1 IDoV= 1
 ScaDFX=  1.000000  1.000000  1.000000  1.000000
 FoFCou: FMM=F IPFlag=           0 FMFlag=      100000 FMFlg1=           0
         NFxFlg=           0 DoJE=T BraDBF=F KetDBF=T FulRan=T
         Omega=  0.000000  0.000000  1.000000  0.000000  0.000000 ICntrl=     500 IOpCl=  0
         NMat0=    1 NMatS0=    1 NMatT0=    0 NMatD0=    1 NMtDS0=    0 NMtDT0=    0
         I1Cent=           4 NGrid=           0.
 Symmetry not used in FoFCou.
 SCF Done:  E(RHF) =  -75.9697136512     A.U. after    7 cycles
             Convg  =    0.3461D-08             -V/T =  2.0014

 **********************************************************************

            Population analysis using the SCF density.

 **********************************************************************

 Alpha  occ. eigenvalues --  -20.57923  -1.35065  -0.66126  -0.58261  -0.50654
 Alpha virt. eigenvalues --    0.18879   0.28310   0.98263   1.15879   1.16246
 Alpha virt. eigenvalues --    1.24823   1.35326   1.74497
          Condensed to atoms (all electrons):
 Mulliken atomic charges:
              1
     1  O   -0.756029
     2  H    0.378020
     3  H    0.378008
 Sum of Mulliken atomic charges =   0.00000
 Mulliken charges with hydrogens summed into heavy atoms:
              1
     1  O    0.000000
 Sum of Mulliken charges with hydrogens summed into heavy atoms =   0.00000
 Electronic spatial extent (au):  <R**2>=             55.5996
 Charge=              0.0000 electrons
 Dipole moment (field-independent basis, Debye):
    X=              0.0000    Y=              2.0265    Z=              2.0267  Tot=              2.8660
 Leave EnFreq:  IXYZ= 0 JXYZ= 2 IStep= 2.
 Current coordinates:
 I=    1 X=   1.889726132886D+00 Y=  -1.889726132886D-04 Z=   0.000000000000D+00
 I=    2 X=   1.889726132886D+00 Y=   1.889726132886D+00 Z=   0.000000000000D+00
 I=    3 X=   1.889726132886D+00 Y=   0.000000000000D+00 Z=   1.889726132886D+00
    13 basis functions,    30 primitive gaussians,    13 cartesian basis functions
     5 alpha electrons        5 beta electrons
       nuclear repulsion energy         8.8405968095 Hartrees.
 NAtoms=    3 NActive=    3 NUniq=    3 SFac= 1.00D+00 NAtFMM=   50 NAOKFM=F Big=F
 Initial guess read from the read-write file.
 B after Tr=     0.000000    0.000000    0.000000
         Rot=    1.000000    0.000000    0.000000    0.000000 Ang=   0.00 deg.
 Harris functional with IExCor=  205 diagonalized for initial guess.
 ExpMin= 1.61D-01 ExpMax= 5.48D+03 ExpMxC= 8.25D+02 IAcc=1 IRadAn=         1 AccDes= 0.00D+00
 HarFok:  IExCor=  205 AccDes= 0.00D+00 IRadAn=         1 IDoV= 1
 ScaDFX=  1.000000  1.000000  1.000000  1.000000
 FoFCou: FMM=F IPFlag=           0 FMFlag=      100000 FMFlg1=           0
         NFxFlg=           0 DoJE=T BraDBF=F KetDBF=T FulRan=T
         Omega=  0.000000  0.000000  1.000000  0.000000  0.000000 ICntrl=     500 IOpCl=  0
         NMat0=    1 NMatS0=    1 NMatT0=    0 NMatD0=    1 NMtDS0=    0 NMtDT0=    0
         I1Cent=           4 NGrid=           0.
 Symmetry not used in FoFCou.
 SCF Done:  E(RHF) =  -75.9696882441     A.U. after    7 cycles
             Convg  =    0.3415D-08             -V/T =  2.0014

 **********************************************************************

            Population analysis using the SCF density.

 **********************************************************************

 Alpha  occ. eigenvalues --  -20.57926  -1.35061  -0.66119  -0.58262  -0.50654
 Alpha virt. eigenvalues --    0.18876   0.28306   0.98257   1.15879   1.16235
 Alpha virt. eigenvalues --    1.24824   1.35322   1.74500
          Condensed to atoms (all electrons):
 Mulliken atomic charges:
              1
     1  O   -0.756001
     2  H    0.377994
     3  H    0.378006
 Sum of Mulliken atomic charges =   0.00000
 Mulliken charges with hydrogens summed into heavy atoms:
              1
     1  O    0.000000
 Sum of Mulliken charges with hydrogens summed into heavy atoms =   0.00000
 Electronic spatial extent (au):  <R**2>=             55.6004
 Charge=              0.0000 electrons
 Dipole moment (field-independent basis, Debye):
    X=              0.0000    Y=              2.0268    Z=              2.0266  Tot=              2.8662
 Status after symmetrization of IXYZ=  0 JXYZ=  2:
 Forces:
 I=    1 X=   0.000000000000D+00 Y=  -6.722424559009D-02 Z=   0.000000000000D+00
 I=    2 X=   0.000000000000D+00 Y=   0.000000000000D+00 Z=   0.000000000000D+00
 I=    3 X=   0.000000000000D+00 Y=   0.000000000000D+00 Z=   0.000000000000D+00
 FFX: 
                1             2             3             4             5 
      1  0.711493D-01
      2  0.000000D+00  0.440152D+00
      3  0.000000D+00  0.000000D+00  0.000000D+00
      4  0.000000D+00  0.000000D+00  0.000000D+00  0.000000D+00
      5  0.000000D+00  0.000000D+00  0.000000D+00  0.000000D+00  0.000000D+00
      6  0.000000D+00  0.000000D+00  0.000000D+00  0.000000D+00  0.000000D+00
      7  0.000000D+00  0.000000D+00  0.000000D+00  0.000000D+00  0.000000D+00
      8  0.000000D+00  0.000000D+00  0.000000D+00  0.000000D+00  0.000000D+00
      9  0.000000D+00  0.000000D+00  0.000000D+00  0.000000D+00  0.000000D+00
                6             7             8             9 
      6  0.000000D+00
      7  0.000000D+00  0.000000D+00
      8  0.000000D+00  0.000000D+00  0.000000D+00
      9  0.000000D+00  0.000000D+00  0.000000D+00  0.000000D+00
 Flags:
       1  2  3  4  5  6  7  8  9
   1  T
   2  F  T
   3  F  F  F
   4  F  F  F  F
   5  F  F  F  F  F
   6  F  F  F  F  F  F
   7  F  F  F  F  F  F  F
   8  F  F  F  F  F  F  F  F
   9  F  F  F  F  F  F  F  F  F
 Leave EnFreq:  IXYZ= 0 JXYZ= 3 IStep= 1.
 Current coordinates:
 I=    1 X=   1.889726132886D+00 Y=   0.000000000000D+00 Z=   1.889726132886D-04
 I=    2 X=   1.889726132886D+00 Y=   1.889726132886D+00 Z=   0.000000000000D+00
 I=    3 X=   1.889726132886D+00 Y=   0.000000000000D+00 Z=   1.889726132886D+00
    13 basis functions,    30 primitive gaussians,    13 cartesian basis functions
     5 alpha electrons        5 beta electrons
       nuclear repulsion energy         8.8414434930 Hartrees.
 NAtoms=    3 NActive=    3 NUniq=    3 SFac= 1.00D+00 NAtFMM=   50 NAOKFM=F Big=F
 Initial guess read from the read-write file.
 B after Tr=     0.000000    0.000000    0.000000
         Rot=    1.000000    0.000000    0.000000    0.000000 Ang=   0.00 deg.
 Harris functional with IExCor=  205 diagonalized for initial guess.
 ExpMin= 1.61D-01 ExpMax= 5.48D+03 ExpMxC= 8.25D+02 IAcc=1 IRadAn=         1 AccDes= 0.00D+00
 HarFok:  IExCor=  205 AccDes= 0.00D+00 IRadAn=         1 IDoV= 1
 ScaDFX=  1.000000  1.000000  1.000000  1.000000
 FoFCou: FMM=F IPFlag=           0 FMFlag=      100000 FMFlg1=           0
         NFxFlg=           0 DoJE=T BraDBF=F KetDBF=T FulRan=T
         Omega=  0.000000  0.000000  1.000000  0.000000  0.000000 ICntrl=     500 IOpCl=  0
         NMat0=    1 NMatS0=    1 NMatT0=    0 NMatD0=    1 NMtDS0=    0 NMtDT0=    0
         I1Cent=           4 NGrid=           0.
 Symmetry not used in FoFCou.
 SCF Done:  E(RHF) =  -75.9697136512     A.U. after    7 cycles
             Convg  =    0.1450D-08             -V/T =  2.0014

 **********************************************************************

            Population analysis using the SCF density.

 **********************************************************************

 Alpha  occ. eigenvalues --  -20.57923  -1.35065  -0.66126  -0.58261  -0.50654
 Alpha virt. eigenvalues --    0.18879   0.28310   0.98263   1.15879   1.16246
 Alpha virt. eigenvalues --    1.24823   1.35326   1.74497
          Condensed to atoms (all electrons):
 Mulliken atomic charges:
              1
     1  O   -0.756029
     2  H    0.378008
     3  H    0.378020
 Sum of Mulliken atomic charges =   0.00000
 Mulliken charges with hydrogens summed into heavy atoms:
              1
     1  O    0.000000
 Sum of Mulliken charges with hydrogens summed into heavy atoms =   0.00000
 Electronic spatial extent (au):  <R**2>=             55.5996
 Charge=              0.0000 electrons
 Dipole moment (field-independent basis, Debye):
    X=              0.0000    Y=              2.0267    Z=              2.0265  Tot=              2.8660
 Leave EnFreq:  IXYZ= 0 JXYZ= 3 IStep= 2.
 Current coordinates:
 I=    1 X=   1.889726132886D+00 Y=   0.000000000000D+00 Z=  -1.889726132886D-04
 I=    2 X=   1.889726132886D+00 Y=   1.889726132886D+00 Z=   0.000000000000D+00
 I=    3 X=   1.889726132886D+00 Y=   0.000000000000D+00 Z=   1.889726132886D+00
    13 basis functions,    30 primitive gaussians,    13 cartesian basis functions
     5 alpha electrons        5 beta electrons
       nuclear repulsion energy         8.8405968095 Hartrees.
 NAtoms=    3 NActive=    3 NUniq=    3 SFac= 1.00D+00 NAtFMM=   50 NAOKFM=F Big=F
 Initial guess read from the read-write file.
 B after Tr=     0.000000    0.000000    0.000000
         Rot=    1.000000    0.000000    0.000000    0.000000 Ang=   0.00 deg.
 Harris functional with IExCor=  205 diagonalized for initial guess.
 ExpMin= 1.61D-01 ExpMax= 5.48D+03 ExpMxC= 8.25D+02 IAcc=1 IRadAn=         1 AccDes= 0.00D+00
 HarFok:  IExCor=  205 AccDes= 0.00D+00 IRadAn=         1 IDoV= 1
 ScaDFX=  1.000000  1.000000  1.000000  1.000000
 FoFCou: FMM=F IPFlag=           0 FMFlag=      100000 FMFlg1=           0
         NFxFlg=           0 DoJE=T BraDBF=F KetDBF=T FulRan=T
         Omega=  0.000000  0.000000  1.000000  0.000000  0.000000 ICntrl=     500 IOpCl=  0
         NMat0=    1 NMatS0=    1 NMatT0=    0 NMatD0=    1 NMtDS0=    0 NMtDT0=    0
         I1Cent=           4 NGrid=           0.
 Symmetry not used in FoFCou.
 SCF Done:  E(RHF) =  -75.9696882441     A.U. after    7 cycles
             Convg  =    0.3415D-08             -V/T =  2.0014

 **********************************************************************

            Population analysis using the SCF density.

 **********************************************************************

 Alpha  occ. eigenvalues --  -20.57926  -1.35061  -0.66119  -0.58262  -0.50654
 Alpha virt. eigenvalues --    0.18876   0.28306   0.98257   1.15879   1.16235
 Alpha virt. eigenvalues --    1.24824   1.35322   1.74500
          Condensed to atoms (all electrons):
 Mulliken atomic charges:
              1
     1  O   -0.756001
     2  H    0.378006
     3  H    0.377994
 Sum of Mulliken atomic charges =   0.00000
 Mulliken charges with hydrogens summed into heavy atoms:
              1
     1  O    0.000000
 Sum of Mulliken charges with hydrogens summed into heavy atoms =   0.00000
 Electronic spatial extent (au):  <R**2>=             55.6004
 Charge=              0.0000 electrons
 Dipole moment (field-independent basis, Debye):
    X=              0.0000    Y=              2.0266    Z=              2.0268  Tot=              2.8662
 Status after symmetrization of IXYZ=  0 JXYZ=  3:
 Forces:
 I=    1 X=   0.000000000000D+00 Y=  -6.722424559009D-02 Z=  -6.722424528928D-02
 I=    2 X=   0.000000000000D+00 Y=   0.000000000000D+00 Z=   0.000000000000D+00
 I=    3 X=   0.000000000000D+00 Y=   0.000000000000D+00 Z=   0.000000000000D+00
 FFX: 
                1             2             3             4             5 
      1  0.711493D-01
      2  0.000000D+00  0.440152D+00
      3  0.000000D+00  0.000000D+00  0.440152D+00
      4  0.000000D+00  0.000000D+00  0.000000D+00  0.000000D+00
      5  0.000000D+00  0.000000D+00  0.000000D+00  0.000000D+00  0.000000D+00
      6  0.000000D+00  0.000000D+00  0.000000D+00  0.000000D+00  0.000000D+00
      7  0.000000D+00  0.000000D+00  0.000000D+00  0.000000D+00  0.000000D+00
      8  0.000000D+00  0.000000D+00  0.000000D+00  0.000000D+00  0.000000D+00
      9  0.000000D+00  0.000000D+00  0.000000D+00  0.000000D+00  0.000000D+00
                6             7             8             9 
      6  0.000000D+00
      7  0.000000D+00  0.000000D+00
      8  0.000000D+00  0.000000D+00  0.000000D+00
      9  0.000000D+00  0.000000D+00  0.000000D+00  0.000000D+00
 Flags:
       1  2  3  4  5  6  7  8  9
   1  T
   2  F  T
   3  F  F  T
   4  F  F  F  F
   5  F  F  F  F  F
   6  F  F  F  F  F  F
   7  F  F  F  F  F  F  F
   8  F  F  F  F  F  F  F  F
   9  F  F  F  F  F  F  F  F  F
 Leave EnFreq:  IXYZ= 0 JXYZ= 4 IStep= 1.
 Current coordinates:
 I=    1 X=   1.889726132886D+00 Y=   0.000000000000D+00 Z=   0.000000000000D+00
 I=    2 X=   1.889915105499D+00 Y=   1.889726132886D+00 Z=   0.000000000000D+00
 I=    3 X=   1.889726132886D+00 Y=   0.000000000000D+00 Z=   1.889726132886D+00
    13 basis functions,    30 primitive gaussians,    13 cartesian basis functions
     5 alpha electrons        5 beta electrons
       nuclear repulsion energy         8.8410201080 Hartrees.
 NAtoms=    3 NActive=    3 NUniq=    3 SFac= 1.00D+00 NAtFMM=   50 NAOKFM=F Big=F
 Initial guess read from the read-write file.
 B after Tr=     0.000000    0.000000    0.000000
         Rot=    1.000000    0.000000    0.000000    0.000000 Ang=   0.00 deg.
 Harris functional with IExCor=  205 diagonalized for initial guess.
 ExpMin= 1.61D-01 ExpMax= 5.48D+03 ExpMxC= 8.25D+02 IAcc=1 IRadAn=         1 AccDes= 0.00D+00
 HarFok:  IExCor=  205 AccDes= 0.00D+00 IRadAn=         1 IDoV= 1
 ScaDFX=  1.000000  1.000000  1.000000  1.000000
 FoFCou: FMM=F IPFlag=           0 FMFlag=      100000 FMFlg1=           0
         NFxFlg=           0 DoJE=T BraDBF=F KetDBF=T FulRan=T
         Omega=  0.000000  0.000000  1.000000  0.000000  0.000000 ICntrl=     500 IOpCl=  0
         NMat0=    1 NMatS0=    1 NMatT0=    0 NMatD0=    1 NMtDS0=    0 NMtDT0=    0
         I1Cent=           4 NGrid=           0.
 Symmetry not used in FoFCou.
 SCF Done:  E(RHF) =  -75.9697009552     A.U. after    7 cycles
             Convg  =    0.3707D-08             -V/T =  2.0014

 **********************************************************************

            Population analysis using the SCF density.

 **********************************************************************

 Alpha  occ. eigenvalues --  -20.57924  -1.35063  -0.66123  -0.58261  -0.50654
 Alpha virt. eigenvalues --    0.18877   0.28308   0.98260   1.15879   1.16241
 Alpha virt. eigenvalues --    1.24824   1.35324   1.74498
          Condensed to atoms (all electrons):
 Mulliken atomic charges:
              1
     1  O   -0.756015
     2  H    0.378007
     3  H    0.378007
 Sum of Mulliken atomic charges =   0.00000
 Mulliken charges with hydrogens summed into heavy atoms:
              1
     1  O    0.000000
 Sum of Mulliken charges with hydrogens summed into heavy atoms =   0.00000
 Electronic spatial extent (au):  <R**2>=             55.6004
 Charge=              0.0000 electrons
 Dipole moment (field-independent basis, Debye):
    X=              0.0002    Y=              2.0267    Z=              2.0267  Tot=              2.8661
 Leave EnFreq:  IXYZ= 0 JXYZ= 4 IStep= 2.
 Current coordinates:
 I=    1 X=   1.889726132886D+00 Y=   0.000000000000D+00 Z=   0.000000000000D+00
 I=    2 X=   1.889537160272D+00 Y=   1.889726132886D+00 Z=   0.000000000000D+00
 I=    3 X=   1.889726132886D+00 Y=   0.000000000000D+00 Z=   1.889726132886D+00
    13 basis functions,    30 primitive gaussians,    13 cartesian basis functions
     5 alpha electrons        5 beta electrons
       nuclear repulsion energy         8.8410201080 Hartrees.
 NAtoms=    3 NActive=    3 NUniq=    3 SFac= 1.00D+00 NAtFMM=   50 NAOKFM=F Big=F
 Initial guess read from the read-write file.
 B after Tr=     0.000000    0.000000    0.000000
         Rot=    1.000000    0.000000    0.000000    0.000000 Ang=   0.00 deg.
 Harris functional with IExCor=  205 diagonalized for initial guess.
 ExpMin= 1.61D-01 ExpMax= 5.48D+03 ExpMxC= 8.25D+02 IAcc=1 IRadAn=         1 AccDes= 0.00D+00
 HarFok:  IExCor=  205 AccDes= 0.00D+00 IRadAn=         1 IDoV= 1
 ScaDFX=  1.000000  1.000000  1.000000  1.000000
 FoFCou: FMM=F IPFlag=           0 FMFlag=      100000 FMFlg1=           0
         NFxFlg=           0 DoJE=T BraDBF=F KetDBF=T FulRan=T
         Omega=  0.000000  0.000000  1.000000  0.000000  0.000000 ICntrl=     500 IOpCl=  0
         NMat0=    1 NMatS0=    1 NMatT0=    0 NMatD0=    1 NMtDS0=    0 NMtDT0=    0
         I1Cent=           4 NGrid=           0.
 Symmetry not used in FoFCou.
 SCF Done:  E(RHF) =  -75.9697009552     A.U. after    5 cycles
             Convg  =    0.6278D-08             -V/T =  2.0014

 **********************************************************************

            Population analysis using the SCF density.

 **********************************************************************

 Alpha  occ. eigenvalues --  -20.57924  -1.35063  -0.66123  -0.58261  -0.50654
 Alpha virt. eigenvalues --    0.18877   0.28308   0.98260   1.15879   1.16241
 Alpha virt. eigenvalues --    1.24824   1.35324   1.74498
          Condensed to atoms (all electrons):
 Mulliken atomic charges:
              1
     1  O   -0.756015
     2  H    0.378007
     3  H    0.378007
 Sum of Mulliken atomic charges =   0.00000
 Mulliken charges with hydrogens summed into heavy atoms:
              1
     1  O    0.000000
 Sum of Mulliken charges with hydrogens summed into heavy atoms =   0.00000
 Electronic spatial extent (au):  <R**2>=             55.5996
 Charge=              0.0000 electrons
 Dipole moment (field-independent basis, Debye):
    X=             -0.0002    Y=              2.0267    Z=              2.0267  Tot=              2.8661
 Status after symmetrization of IXYZ=  0 JXYZ=  4:
 Forces:
 I=    1 X=   0.000000000000D+00 Y=  -6.722424559009D-02 Z=  -6.722424528928D-02
 I=    2 X=   0.000000000000D+00 Y=   0.000000000000D+00 Z=   0.000000000000D+00
 I=    3 X=   0.000000000000D+00 Y=   0.000000000000D+00 Z=   0.000000000000D+00
 FFX: 
                1             2             3             4             5 
      1  0.711493D-01
      2  0.000000D+00  0.440152D+00
      3  0.000000D+00  0.000000D+00  0.440152D+00
      4  0.000000D+00  0.000000D+00  0.000000D+00  0.164184D-01
      5  0.000000D+00  0.000000D+00  0.000000D+00  0.000000D+00  0.000000D+00
      6  0.000000D+00  0.000000D+00  0.000000D+00  0.000000D+00  0.000000D+00
      7  0.000000D+00  0.000000D+00  0.000000D+00  0.000000D+00  0.000000D+00
      8  0.000000D+00  0.000000D+00  0.000000D+00  0.000000D+00  0.000000D+00
      9  0.000000D+00  0.000000D+00  0.000000D+00  0.000000D+00  0.000000D+00
                6             7             8             9 
      6  0.000000D+00
      7  0.000000D+00  0.000000D+00
      8  0.000000D+00  0.000000D+00  0.000000D+00
      9  0.000000D+00  0.000000D+00  0.000000D+00  0.000000D+00
 Flags:
       1  2  3  4  5  6  7  8  9
   1  T
   2  F  T
   3  F  F  T
   4  F  F  F  T
   5  F  F  F  F  F
   6  F  F  F  F  F  F
   7  F  F  F  F  F  F  F
   8  F  F  F  F  F  F  F  F
   9  F  F  F  F  F  F  F  F  F
 Leave EnFreq:  IXYZ= 0 JXYZ= 5 IStep= 1.
 Current coordinates:
 I=    1 X=   1.889726132886D+00 Y=   0.000000000000D+00 Z=   0.000000000000D+00
 I=    2 X=   1.889726132886D+00 Y=   1.889915105499D+00 Z=   0.000000000000D+00
 I=    3 X=   1.889726132886D+00 Y=   0.000000000000D+00 Z=   1.889726132886D+00
    13 basis functions,    30 primitive gaussians,    13 cartesian basis functions
     5 alpha electrons        5 beta electrons
       nuclear repulsion energy         8.8405781219 Hartrees.
 NAtoms=    3 NActive=    3 NUniq=    3 SFac= 1.00D+00 NAtFMM=   50 NAOKFM=F Big=F
 Initial guess read from the read-write file.
 B after Tr=     0.000000    0.000000    0.000000
         Rot=    1.000000    0.000000    0.000000    0.000000 Ang=   0.00 deg.
 Harris functional with IExCor=  205 diagonalized for initial guess.
 ExpMin= 1.61D-01 ExpMax= 5.48D+03 ExpMxC= 8.25D+02 IAcc=1 IRadAn=         1 AccDes= 0.00D+00
 HarFok:  IExCor=  205 AccDes= 0.00D+00 IRadAn=         1 IDoV= 1
 ScaDFX=  1.000000  1.000000  1.000000  1.000000
 FoFCou: FMM=F IPFlag=           0 FMFlag=      100000 FMFlg1=           0
         NFxFlg=           0 DoJE=T BraDBF=F KetDBF=T FulRan=T
         Omega=  0.000000  0.000000  1.000000  0.000000  0.000000 ICntrl=     500 IOpCl=  0
         NMat0=    1 NMatS0=    1 NMatT0=    0 NMatD0=    1 NMtDS0=    0 NMtDT0=    0
         I1Cent=           4 NGrid=           0.
 Symmetry not used in FoFCou.
 SCF Done:  E(RHF) =  -75.9696950866     A.U. after    7 cycles
             Convg  =    0.3275D-08             -V/T =  2.0014

 **********************************************************************

            Population analysis using the SCF density.

 **********************************************************************

 Alpha  occ. eigenvalues --  -20.57925  -1.35061  -0.66120  -0.58260  -0.50654
 Alpha virt. eigenvalues --    0.18876   0.28307   0.98258   1.15879   1.16235
 Alpha virt. eigenvalues --    1.24823   1.35323   1.74498
          Condensed to atoms (all electrons):
 Mulliken atomic charges:
              1
     1  O   -0.756017
     2  H    0.378002
     3  H    0.378014
 Sum of Mulliken atomic charges =   0.00000
 Mulliken charges with hydrogens summed into heavy atoms:
              1
     1  O    0.000000
 Sum of Mulliken charges with hydrogens summed into heavy atoms =   0.00000
 Electronic spatial extent (au):  <R**2>=             55.6007
 Charge=              0.0000 electrons
 Dipole moment (field-independent basis, Debye):
    X=              0.0000    Y=              2.0267    Z=              2.0267  Tot=              2.8661
 Leave EnFreq:  IXYZ= 0 JXYZ= 5 IStep= 2.
 Current coordinates:
 I=    1 X=   1.889726132886D+00 Y=   0.000000000000D+00 Z=   0.000000000000D+00
 I=    2 X=   1.889726132886D+00 Y=   1.889537160272D+00 Z=   0.000000000000D+00
 I=    3 X=   1.889726132886D+00 Y=   0.000000000000D+00 Z=   1.889726132886D+00
    13 basis functions,    30 primitive gaussians,    13 cartesian basis functions
     5 alpha electrons        5 beta electrons
       nuclear repulsion energy         8.8414622239 Hartrees.
 NAtoms=    3 NActive=    3 NUniq=    3 SFac= 1.00D+00 NAtFMM=   50 NAOKFM=F Big=F
 Initial guess read from the read-write file.
 B after Tr=     0.000000    0.000000    0.000000
         Rot=    1.000000    0.000000    0.000000    0.000000 Ang=   0.00 deg.
 Harris functional with IExCor=  205 diagonalized for initial guess.
 ExpMin= 1.61D-01 ExpMax= 5.48D+03 ExpMxC= 8.25D+02 IAcc=1 IRadAn=         1 AccDes= 0.00D+00
 HarFok:  IExCor=  205 AccDes= 0.00D+00 IRadAn=         1 IDoV= 1
 ScaDFX=  1.000000  1.000000  1.000000  1.000000
 FoFCou: FMM=F IPFlag=           0 FMFlag=      100000 FMFlg1=           0
         NFxFlg=           0 DoJE=T BraDBF=F KetDBF=T FulRan=T
         Omega=  0.000000  0.000000  1.000000  0.000000  0.000000 ICntrl=     500 IOpCl=  0
         NMat0=    1 NMatS0=    1 NMatT0=    0 NMatD0=    1 NMtDS0=    0 NMtDT0=    0
         I1Cent=           4 NGrid=           0.
 Symmetry not used in FoFCou.
 SCF Done:  E(RHF) =  -75.9697068097     A.U. after    7 cycles
             Convg  =    0.2861D-08             -V/T =  2.0014

 **********************************************************************

            Population analysis using the SCF density.

 **********************************************************************

 Alpha  occ. eigenvalues --  -20.57923  -1.35066  -0.66125  -0.58262  -0.50654
 Alpha virt. eigenvalues --    0.18878   0.28310   0.98261   1.15879   1.16246
 Alpha virt. eigenvalues --    1.24824   1.35326   1.74498
          Condensed to atoms (all electrons):
 Mulliken atomic charges:
              1
     1  O   -0.756013
     2  H    0.378012
     3  H    0.378001
 Sum of Mulliken atomic charges =   0.00000
 Mulliken charges with hydrogens summed into heavy atoms:
              1
     1  O    0.000000
 Sum of Mulliken charges with hydrogens summed into heavy atoms =   0.00000
 Electronic spatial extent (au):  <R**2>=             55.5992
 Charge=              0.0000 electrons
 Dipole moment (field-independent basis, Debye):
    X=              0.0000    Y=              2.0267    Z=              2.0266  Tot=              2.8661
 Status after symmetrization of IXYZ=  0 JXYZ=  5:
 Forces:
 I=    1 X=   0.000000000000D+00 Y=  -6.722424559009D-02 Z=  -6.722424528928D-02
 I=    2 X=   0.000000000000D+00 Y=   3.101802683215D-02 Z=   0.000000000000D+00
 I=    3 X=   0.000000000000D+00 Y=   0.000000000000D+00 Z=   0.000000000000D+00
 FFX: 
                1             2             3             4             5 
      1  0.711493D-01
      2  0.000000D+00  0.440152D+00
      3  0.000000D+00  0.000000D+00  0.440152D+00
      4  0.000000D+00  0.000000D+00  0.000000D+00  0.164184D-01
      5  0.000000D+00  0.000000D+00  0.000000D+00  0.000000D+00  0.414389D+00
      6  0.000000D+00  0.000000D+00  0.000000D+00  0.000000D+00  0.000000D+00
      7  0.000000D+00  0.000000D+00  0.000000D+00  0.000000D+00  0.000000D+00
      8  0.000000D+00  0.000000D+00  0.000000D+00  0.000000D+00  0.000000D+00
      9  0.000000D+00  0.000000D+00  0.000000D+00  0.000000D+00  0.000000D+00
                6             7             8             9 
      6  0.000000D+00
      7  0.000000D+00  0.000000D+00
      8  0.000000D+00  0.000000D+00  0.000000D+00
      9  0.000000D+00  0.000000D+00  0.000000D+00  0.000000D+00
 Flags:
       1  2  3  4  5  6  7  8  9
   1  T
   2  F  T
   3  F  F  T
   4  F  F  F  T
   5  F  F  F  F  T
   6  F  F  F  F  F  F
   7  F  F  F  F  F  F  F
   8  F  F  F  F  F  F  F  F
   9  F  F  F  F  F  F  F  F  F
 Leave EnFreq:  IXYZ= 0 JXYZ= 6 IStep= 1.
 Current coordinates:
 I=    1 X=   1.889726132886D+00 Y=   0.000000000000D+00 Z=   0.000000000000D+00
 I=    2 X=   1.889726132886D+00 Y=   1.889726132886D+00 Z=   1.889726132886D-04
 I=    3 X=   1.889726132886D+00 Y=   0.000000000000D+00 Z=   1.889726132886D+00
    13 basis functions,    30 primitive gaussians,    13 cartesian basis functions
     5 alpha electrons        5 beta electrons
       nuclear repulsion energy         8.8410388186 Hartrees.
 NAtoms=    3 NActive=    3 NUniq=    3 SFac= 1.00D+00 NAtFMM=   50 NAOKFM=F Big=F
 Initial guess read from the read-write file.
 B after Tr=     0.000000    0.000000    0.000000
         Rot=    1.000000    0.000000    0.000000    0.000000 Ang=   0.00 deg.
 Harris functional with IExCor=  205 diagonalized for initial guess.
 ExpMin= 1.61D-01 ExpMax= 5.48D+03 ExpMxC= 8.25D+02 IAcc=1 IRadAn=         1 AccDes= 0.00D+00
 HarFok:  IExCor=  205 AccDes= 0.00D+00 IRadAn=         1 IDoV= 1
 ScaDFX=  1.000000  1.000000  1.000000  1.000000
 FoFCou: FMM=F IPFlag=           0 FMFlag=      100000 FMFlg1=           0
         NFxFlg=           0 DoJE=T BraDBF=F KetDBF=T FulRan=T
         Omega=  0.000000  0.000000  1.000000  0.000000  0.000000 ICntrl=     500 IOpCl=  0
         NMat0=    1 NMatS0=    1 NMatT0=    0 NMatD0=    1 NMtDS0=    0 NMtDT0=    0
         I1Cent=           4 NGrid=           0.
 Symmetry not used in FoFCou.
 SCF Done:  E(RHF) =  -75.9696941121     A.U. after    6 cycles
             Convg  =    0.9648D-08             -V/T =  2.0014

 **********************************************************************

            Population analysis using the SCF density.

 **********************************************************************

 Alpha  occ. eigenvalues --  -20.57925  -1.35064  -0.66121  -0.58262  -0.50654
 Alpha virt. eigenvalues --    0.18877   0.28308   0.98258   1.15879   1.16241
 Alpha virt. eigenvalues --    1.24825   1.35324   1.74500
          Condensed to atoms (all electrons):
 Mulliken atomic charges:
              1
     1  O   -0.755999
     2  H    0.377999
     3  H    0.377999
 Sum of Mulliken atomic charges =   0.00000
 Mulliken charges with hydrogens summed into heavy atoms:
              1
     1  O    0.000000
 Sum of Mulliken charges with hydrogens summed into heavy atoms =   0.00000
 Electronic spatial extent (au):  <R**2>=             55.6000
 Charge=              0.0000 electrons
 Dipole moment (field-independent basis, Debye):
    X=              0.0000    Y=              2.0266    Z=              2.0268  Tot=              2.8662
 Leave EnFreq:  IXYZ= 0 JXYZ= 6 IStep= 2.
 Current coordinates:
 I=    1 X=   1.889726132886D+00 Y=   0.000000000000D+00 Z=   0.000000000000D+00
 I=    2 X=   1.889726132886D+00 Y=   1.889726132886D+00 Z=  -1.889726132886D-04
 I=    3 X=   1.889726132886D+00 Y=   0.000000000000D+00 Z=   1.889726132886D+00
    13 basis functions,    30 primitive gaussians,    13 cartesian basis functions
     5 alpha electrons        5 beta electrons
       nuclear repulsion energy         8.8410014001 Hartrees.
 NAtoms=    3 NActive=    3 NUniq=    3 SFac= 1.00D+00 NAtFMM=   50 NAOKFM=F Big=F
 Initial guess read from the read-write file.
 B after Tr=     0.000000    0.000000    0.000000
         Rot=    1.000000    0.000000    0.000000    0.000000 Ang=   0.00 deg.
 Harris functional with IExCor=  205 diagonalized for initial guess.
 ExpMin= 1.61D-01 ExpMax= 5.48D+03 ExpMxC= 8.25D+02 IAcc=1 IRadAn=         1 AccDes= 0.00D+00
 HarFok:  IExCor=  205 AccDes= 0.00D+00 IRadAn=         1 IDoV= 1
 ScaDFX=  1.000000  1.000000  1.000000  1.000000
 FoFCou: FMM=F IPFlag=           0 FMFlag=      100000 FMFlg1=           0
         NFxFlg=           0 DoJE=T BraDBF=F KetDBF=T FulRan=T
         Omega=  0.000000  0.000000  1.000000  0.000000  0.000000 ICntrl=     500 IOpCl=  0
         NMat0=    1 NMatS0=    1 NMatT0=    0 NMatD0=    1 NMtDS0=    0 NMtDT0=    0
         I1Cent=           4 NGrid=           0.
 Symmetry not used in FoFCou.
 SCF Done:  E(RHF) =  -75.9697077961     A.U. after    6 cycles
             Convg  =    0.7352D-08             -V/T =  2.0014

 **********************************************************************

            Population analysis using the SCF density.

 **********************************************************************

 Alpha  occ. eigenvalues --  -20.57924  -1.35063  -0.66124  -0.58260  -0.50654
 Alpha virt. eigenvalues --    0.18877   0.28309   0.98261   1.15879   1.16240
 Alpha virt. eigenvalues --    1.24823   1.35325   1.74496
          Condensed to atoms (all electrons):
 Mulliken atomic charges:
              1
     1  O   -0.756030
     2  H    0.378015
     3  H    0.378015
 Sum of Mulliken atomic charges =   0.00000
 Mulliken charges with hydrogens summed into heavy atoms:
              1
     1  O    0.000000
 Sum of Mulliken charges with hydrogens summed into heavy atoms =   0.00000
 Electronic spatial extent (au):  <R**2>=             55.5999
 Charge=              0.0000 electrons
 Dipole moment (field-independent basis, Debye):
    X=              0.0000    Y=              2.0267    Z=              2.0265  Tot=              2.8661
 Status after symmetrization of IXYZ=  0 JXYZ=  6:
 Forces:
 I=    1 X=   0.000000000000D+00 Y=  -6.722424559009D-02 Z=  -6.722424528928D-02
 I=    2 X=   0.000000000000D+00 Y=   3.101802683215D-02 Z=   3.620621917154D-02
 I=    3 X=   0.000000000000D+00 Y=   0.000000000000D+00 Z=   0.000000000000D+00
 FFX: 
                1             2             3             4             5 
      1  0.711493D-01
      2  0.000000D+00  0.440152D+00
      3  0.000000D+00  0.000000D+00  0.440152D+00
      4  0.000000D+00  0.000000D+00  0.000000D+00  0.164184D-01
      5  0.000000D+00  0.000000D+00  0.000000D+00  0.000000D+00  0.414389D+00
      6  0.000000D+00  0.000000D+00  0.000000D+00  0.000000D+00  0.000000D+00
      7  0.000000D+00  0.000000D+00  0.000000D+00  0.000000D+00  0.000000D+00
      8  0.000000D+00  0.000000D+00  0.000000D+00  0.000000D+00  0.000000D+00
      9  0.000000D+00  0.000000D+00  0.000000D+00  0.000000D+00  0.000000D+00
                6             7             8             9 
      6  0.781977D-01
      7  0.000000D+00  0.000000D+00
      8  0.000000D+00  0.000000D+00  0.000000D+00
      9  0.000000D+00  0.000000D+00  0.000000D+00  0.000000D+00
 Flags:
       1  2  3  4  5  6  7  8  9
   1  T
   2  F  T
   3  F  F  T
   4  F  F  F  T
   5  F  F  F  F  T
   6  F  F  F  F  F  T
   7  F  F  F  F  F  F  F
   8  F  F  F  F  F  F  F  F
   9  F  F  F  F  F  F  F  F  F
 Leave EnFreq:  IXYZ= 0 JXYZ= 7 IStep= 1.
 Current coordinates:
 I=    1 X=   1.889726132886D+00 Y=   0.000000000000D+00 Z=   0.000000000000D+00
 I=    2 X=   1.889726132886D+00 Y=   1.889726132886D+00 Z=   0.000000000000D+00
 I=    3 X=   1.889915105499D+00 Y=   0.000000000000D+00 Z=   1.889726132886D+00
    13 basis functions,    30 primitive gaussians,    13 cartesian basis functions
     5 alpha electrons        5 beta electrons
       nuclear repulsion energy         8.8410201080 Hartrees.
 NAtoms=    3 NActive=    3 NUniq=    3 SFac= 1.00D+00 NAtFMM=   50 NAOKFM=F Big=F
 Initial guess read from the read-write file.
 B after Tr=     0.000000    0.000000    0.000000
         Rot=    1.000000    0.000000    0.000000    0.000000 Ang=   0.00 deg.
 Harris functional with IExCor=  205 diagonalized for initial guess.
 ExpMin= 1.61D-01 ExpMax= 5.48D+03 ExpMxC= 8.25D+02 IAcc=1 IRadAn=         1 AccDes= 0.00D+00
 HarFok:  IExCor=  205 AccDes= 0.00D+00 IRadAn=         1 IDoV= 1
 ScaDFX=  1.000000  1.000000  1.000000  1.000000
 FoFCou: FMM=F IPFlag=           0 FMFlag=      100000 FMFlg1=           0
         NFxFlg=           0 DoJE=T BraDBF=F KetDBF=T FulRan=T
         Omega=  0.000000  0.000000  1.000000  0.000000  0.000000 ICntrl=     500 IOpCl=  0
         NMat0=    1 NMatS0=    1 NMatT0=    0 NMatD0=    1 NMtDS0=    0 NMtDT0=    0
         I1Cent=           4 NGrid=           0.
 Symmetry not used in FoFCou.
 SCF Done:  E(RHF) =  -75.9697009552     A.U. after    6 cycles
             Convg  =    0.6003D-08             -V/T =  2.0014

 **********************************************************************

            Population analysis using the SCF density.

 **********************************************************************

 Alpha  occ. eigenvalues --  -20.57924  -1.35063  -0.66123  -0.58261  -0.50654
 Alpha virt. eigenvalues --    0.18877   0.28308   0.98260   1.15879   1.16241
 Alpha virt. eigenvalues --    1.24824   1.35324   1.74498
          Condensed to atoms (all electrons):
 Mulliken atomic charges:
              1
     1  O   -0.756015
     2  H    0.378007
     3  H    0.378007
 Sum of Mulliken atomic charges =   0.00000
 Mulliken charges with hydrogens summed into heavy atoms:
              1
     1  O    0.000000
 Sum of Mulliken charges with hydrogens summed into heavy atoms =   0.00000
 Electronic spatial extent (au):  <R**2>=             55.6004
 Charge=              0.0000 electrons
 Dipole moment (field-independent basis, Debye):
    X=              0.0002    Y=              2.0267    Z=              2.0267  Tot=              2.8661
 Leave EnFreq:  IXYZ= 0 JXYZ= 7 IStep= 2.
 Current coordinates:
 I=    1 X=   1.889726132886D+00 Y=   0.000000000000D+00 Z=   0.000000000000D+00
 I=    2 X=   1.889726132886D+00 Y=   1.889726132886D+00 Z=   0.000000000000D+00
 I=    3 X=   1.889537160272D+00 Y=   0.000000000000D+00 Z=   1.889726132886D+00
    13 basis functions,    30 primitive gaussians,    13 cartesian basis functions
     5 alpha electrons        5 beta electrons
       nuclear repulsion energy         8.8410201080 Hartrees.
 NAtoms=    3 NActive=    3 NUniq=    3 SFac= 1.00D+00 NAtFMM=   50 NAOKFM=F Big=F
 Initial guess read from the read-write file.
 B after Tr=     0.000000    0.000000    0.000000
         Rot=    1.000000    0.000000    0.000000    0.000000 Ang=   0.00 deg.
 Harris functional with IExCor=  205 diagonalized for initial guess.
 ExpMin= 1.61D-01 ExpMax= 5.48D+03 ExpMxC= 8.25D+02 IAcc=1 IRadAn=         1 AccDes= 0.00D+00
 HarFok:  IExCor=  205 AccDes= 0.00D+00 IRadAn=         1 IDoV= 1
 ScaDFX=  1.000000  1.000000  1.000000  1.000000
 FoFCou: FMM=F IPFlag=           0 FMFlag=      100000 FMFlg1=           0
         NFxFlg=           0 DoJE=T BraDBF=F KetDBF=T FulRan=T
         Omega=  0.000000  0.000000  1.000000  0.000000  0.000000 ICntrl=     500 IOpCl=  0
         NMat0=    1 NMatS0=    1 NMatT0=    0 NMatD0=    1 NMtDS0=    0 NMtDT0=    0
         I1Cent=           4 NGrid=           0.
 Symmetry not used in FoFCou.
 SCF Done:  E(RHF) =  -75.9697009552     A.U. after    5 cycles
             Convg  =    0.6329D-08             -V/T =  2.0014

 **********************************************************************

            Population analysis using the SCF density.

 **********************************************************************

 Alpha  occ. eigenvalues --  -20.57924  -1.35063  -0.66123  -0.58261  -0.50654
 Alpha virt. eigenvalues --    0.18877   0.28308   0.98260   1.15879   1.16241
 Alpha virt. eigenvalues --    1.24824   1.35324   1.74498
          Condensed to atoms (all electrons):
 Mulliken atomic charges:
              1
     1  O   -0.756015
     2  H    0.378007
     3  H    0.378007
 Sum of Mulliken atomic charges =   0.00000
 Mulliken charges with hydrogens summed into heavy atoms:
              1
     1  O    0.000000
 Sum of Mulliken charges with hydrogens summed into heavy atoms =   0.00000
 Electronic spatial extent (au):  <R**2>=             55.5996
 Charge=              0.0000 electrons
 Dipole moment (field-independent basis, Debye):
    X=             -0.0002    Y=              2.0267    Z=              2.0267  Tot=              2.8661
 Status after symmetrization of IXYZ=  0 JXYZ=  7:
 Forces:
 I=    1 X=   0.000000000000D+00 Y=  -6.722424559009D-02 Z=  -6.722424528928D-02
 I=    2 X=   0.000000000000D+00 Y=   3.101802683215D-02 Z=   3.620621917154D-02
 I=    3 X=   0.000000000000D+00 Y=   0.000000000000D+00 Z=   0.000000000000D+00
 FFX: 
                1             2             3             4             5 
      1  0.711493D-01
      2  0.000000D+00  0.440152D+00
      3  0.000000D+00  0.000000D+00  0.440152D+00
      4  0.000000D+00  0.000000D+00  0.000000D+00  0.164184D-01
      5  0.000000D+00  0.000000D+00  0.000000D+00  0.000000D+00  0.414389D+00
      6  0.000000D+00  0.000000D+00  0.000000D+00  0.000000D+00  0.000000D+00
      7  0.000000D+00  0.000000D+00  0.000000D+00  0.000000D+00  0.000000D+00
      8  0.000000D+00  0.000000D+00  0.000000D+00  0.000000D+00  0.000000D+00
      9  0.000000D+00  0.000000D+00  0.000000D+00  0.000000D+00  0.000000D+00
                6             7             8             9 
      6  0.781977D-01
      7  0.000000D+00  0.164176D-01
      8  0.000000D+00  0.000000D+00  0.000000D+00
      9  0.000000D+00  0.000000D+00  0.000000D+00  0.000000D+00
 Flags:
       1  2  3  4  5  6  7  8  9
   1  T
   2  F  T
   3  F  F  T
   4  F  F  F  T
   5  F  F  F  F  T
   6  F  F  F  F  F  T
   7  F  F  F  F  F  F  T
   8  F  F  F  F  F  F  F  F
   9  F  F  F  F  F  F  F  F  F
 Leave EnFreq:  IXYZ= 0 JXYZ= 8 IStep= 1.
 Current coordinates:
 I=    1 X=   1.889726132886D+00 Y=   0.000000000000D+00 Z=   0.000000000000D+00
 I=    2 X=   1.889726132886D+00 Y=   1.889726132886D+00 Z=   0.000000000000D+00
 I=    3 X=   1.889726132886D+00 Y=   1.889726132886D-04 Z=   1.889726132886D+00
    13 basis functions,    30 primitive gaussians,    13 cartesian basis functions
     5 alpha electrons        5 beta electrons
       nuclear repulsion energy         8.8410388186 Hartrees.
 NAtoms=    3 NActive=    3 NUniq=    3 SFac= 1.00D+00 NAtFMM=   50 NAOKFM=F Big=F
 Initial guess read from the read-write file.
 B after Tr=     0.000000    0.000000    0.000000
         Rot=    1.000000    0.000000    0.000000    0.000000 Ang=   0.00 deg.
 Harris functional with IExCor=  205 diagonalized for initial guess.
 ExpMin= 1.61D-01 ExpMax= 5.48D+03 ExpMxC= 8.25D+02 IAcc=1 IRadAn=         1 AccDes= 0.00D+00
 HarFok:  IExCor=  205 AccDes= 0.00D+00 IRadAn=         1 IDoV= 1
 ScaDFX=  1.000000  1.000000  1.000000  1.000000
 FoFCou: FMM=F IPFlag=           0 FMFlag=      100000 FMFlg1=           0
         NFxFlg=           0 DoJE=T BraDBF=F KetDBF=T FulRan=T
         Omega=  0.000000  0.000000  1.000000  0.000000  0.000000 ICntrl=     500 IOpCl=  0
         NMat0=    1 NMatS0=    1 NMatT0=    0 NMatD0=    1 NMtDS0=    0 NMtDT0=    0
         I1Cent=           4 NGrid=           0.
 Symmetry not used in FoFCou.
 SCF Done:  E(RHF) =  -75.9696941121     A.U. after    6 cycles
             Convg  =    0.6001D-08             -V/T =  2.0014

 **********************************************************************

            Population analysis using the SCF density.

 **********************************************************************

 Alpha  occ. eigenvalues --  -20.57925  -1.35064  -0.66121  -0.58262  -0.50654
 Alpha virt. eigenvalues --    0.18877   0.28308   0.98258   1.15879   1.16241
 Alpha virt. eigenvalues --    1.24825   1.35324   1.74500
          Condensed to atoms (all electrons):
 Mulliken atomic charges:
              1
     1  O   -0.755999
     2  H    0.377999
     3  H    0.377999
 Sum of Mulliken atomic charges =   0.00000
 Mulliken charges with hydrogens summed into heavy atoms:
              1
     1  O    0.000000
 Sum of Mulliken charges with hydrogens summed into heavy atoms =   0.00000
 Electronic spatial extent (au):  <R**2>=             55.6000
 Charge=              0.0000 electrons
 Dipole moment (field-independent basis, Debye):
    X=              0.0000    Y=              2.0268    Z=              2.0266  Tot=              2.8662
 Leave EnFreq:  IXYZ= 0 JXYZ= 8 IStep= 2.
 Current coordinates:
 I=    1 X=   1.889726132886D+00 Y=   0.000000000000D+00 Z=   0.000000000000D+00
 I=    2 X=   1.889726132886D+00 Y=   1.889726132886D+00 Z=   0.000000000000D+00
 I=    3 X=   1.889726132886D+00 Y=  -1.889726132886D-04 Z=   1.889726132886D+00
    13 basis functions,    30 primitive gaussians,    13 cartesian basis functions
     5 alpha electrons        5 beta electrons
       nuclear repulsion energy         8.8410014001 Hartrees.
 NAtoms=    3 NActive=    3 NUniq=    3 SFac= 1.00D+00 NAtFMM=   50 NAOKFM=F Big=F
 Initial guess read from the read-write file.
 B after Tr=     0.000000    0.000000    0.000000
         Rot=    1.000000    0.000000    0.000000    0.000000 Ang=   0.00 deg.
 Harris functional with IExCor=  205 diagonalized for initial guess.
 ExpMin= 1.61D-01 ExpMax= 5.48D+03 ExpMxC= 8.25D+02 IAcc=1 IRadAn=         1 AccDes= 0.00D+00
 HarFok:  IExCor=  205 AccDes= 0.00D+00 IRadAn=         1 IDoV= 1
 ScaDFX=  1.000000  1.000000  1.000000  1.000000
 FoFCou: FMM=F IPFlag=           0 FMFlag=      100000 FMFlg1=           0
         NFxFlg=           0 DoJE=T BraDBF=F KetDBF=T FulRan=T
         Omega=  0.000000  0.000000  1.000000  0.000000  0.000000 ICntrl=     500 IOpCl=  0
         NMat0=    1 NMatS0=    1 NMatT0=    0 NMatD0=    1 NMtDS0=    0 NMtDT0=    0
         I1Cent=           4 NGrid=           0.
 Symmetry not used in FoFCou.
 SCF Done:  E(RHF) =  -75.9697077961     A.U. after    6 cycles
             Convg  =    0.7355D-08             -V/T =  2.0014

 **********************************************************************

            Population analysis using the SCF density.

 **********************************************************************

 Alpha  occ. eigenvalues --  -20.57924  -1.35063  -0.66124  -0.58260  -0.50654
 Alpha virt. eigenvalues --    0.18877   0.28309   0.98261   1.15879   1.16240
 Alpha virt. eigenvalues --    1.24823   1.35325   1.74496
          Condensed to atoms (all electrons):
 Mulliken atomic charges:
              1
     1  O   -0.756030
     2  H    0.378015
     3  H    0.378015
 Sum of Mulliken atomic charges =   0.00000
 Mulliken charges with hydrogens summed into heavy atoms:
              1
     1  O    0.000000
 Sum of Mulliken charges with hydrogens summed into heavy atoms =   0.00000
 Electronic spatial extent (au):  <R**2>=             55.5999
 Charge=              0.0000 electrons
 Dipole moment (field-independent basis, Debye):
    X=              0.0000    Y=              2.0265    Z=              2.0267  Tot=              2.8661
 Status after symmetrization of IXYZ=  0 JXYZ=  8:
 Forces:
 I=    1 X=   0.000000000000D+00 Y=  -6.722424559009D-02 Z=  -6.722424528928D-02
 I=    2 X=   0.000000000000D+00 Y=   3.101802683215D-02 Z=   3.620621917154D-02
 I=    3 X=   0.000000000000D+00 Y=   3.620621943474D-02 Z=   0.000000000000D+00
 FFX: 
                1             2             3             4             5 
      1  0.711493D-01
      2  0.000000D+00  0.440152D+00
      3  0.000000D+00  0.000000D+00  0.440152D+00
      4  0.000000D+00  0.000000D+00  0.000000D+00  0.164184D-01
      5  0.000000D+00  0.000000D+00  0.000000D+00  0.000000D+00  0.414389D+00
      6  0.000000D+00  0.000000D+00  0.000000D+00  0.000000D+00  0.000000D+00
      7  0.000000D+00  0.000000D+00  0.000000D+00  0.000000D+00  0.000000D+00
      8  0.000000D+00  0.000000D+00  0.000000D+00  0.000000D+00  0.000000D+00
      9  0.000000D+00  0.000000D+00  0.000000D+00  0.000000D+00  0.000000D+00
                6             7             8             9 
      6  0.781977D-01
      7  0.000000D+00  0.164176D-01
      8  0.000000D+00  0.000000D+00  0.781953D-01
      9  0.000000D+00  0.000000D+00  0.000000D+00  0.000000D+00
 Flags:
       1  2  3  4  5  6  7  8  9
   1  T
   2  F  T
   3  F  F  T
   4  F  F  F  T
   5  F  F  F  F  T
   6  F  F  F  F  F  T
   7  F  F  F  F  F  F  T
   8  F  F  F  F  F  F  F  T
   9  F  F  F  F  F  F  F  F  F
 Leave EnFreq:  IXYZ= 0 JXYZ= 9 IStep= 1.
 Current coordinates:
 I=    1 X=   1.889726132886D+00 Y=   0.000000000000D+00 Z=   0.000000000000D+00
 I=    2 X=   1.889726132886D+00 Y=   1.889726132886D+00 Z=   0.000000000000D+00
 I=    3 X=   1.889726132886D+00 Y=   0.000000000000D+00 Z=   1.889915105499D+00
    13 basis functions,    30 primitive gaussians,    13 cartesian basis functions
     5 alpha electrons        5 beta electrons
       nuclear repulsion energy         8.8405781219 Hartrees.
 NAtoms=    3 NActive=    3 NUniq=    3 SFac= 1.00D+00 NAtFMM=   50 NAOKFM=F Big=F
 Initial guess read from the read-write file.
 B after Tr=     0.000000    0.000000    0.000000
         Rot=    1.000000    0.000000    0.000000    0.000000 Ang=   0.00 deg.
 Harris functional with IExCor=  205 diagonalized for initial guess.
 ExpMin= 1.61D-01 ExpMax= 5.48D+03 ExpMxC= 8.25D+02 IAcc=1 IRadAn=         1 AccDes= 0.00D+00
 HarFok:  IExCor=  205 AccDes= 0.00D+00 IRadAn=         1 IDoV= 1
 ScaDFX=  1.000000  1.000000  1.000000  1.000000
 FoFCou: FMM=F IPFlag=           0 FMFlag=      100000 FMFlg1=           0
         NFxFlg=           0 DoJE=T BraDBF=F KetDBF=T FulRan=T
         Omega=  0.000000  0.000000  1.000000  0.000000  0.000000 ICntrl=     500 IOpCl=  0
         NMat0=    1 NMatS0=    1 NMatT0=    0 NMatD0=    1 NMtDS0=    0 NMtDT0=    0
         I1Cent=           4 NGrid=           0.
 Symmetry not used in FoFCou.
 SCF Done:  E(RHF) =  -75.9696950866     A.U. after    6 cycles
             Convg  =    0.9650D-08             -V/T =  2.0014

 **********************************************************************

            Population analysis using the SCF density.

 **********************************************************************

 Alpha  occ. eigenvalues --  -20.57925  -1.35061  -0.66120  -0.58260  -0.50654
 Alpha virt. eigenvalues --    0.18876   0.28307   0.98258   1.15879   1.16235
 Alpha virt. eigenvalues --    1.24823   1.35323   1.74498
          Condensed to atoms (all electrons):
 Mulliken atomic charges:
              1
     1  O   -0.756016
     2  H    0.378014
     3  H    0.378002
 Sum of Mulliken atomic charges =   0.00000
 Mulliken charges with hydrogens summed into heavy atoms:
              1
     1  O    0.000000
 Sum of Mulliken charges with hydrogens summed into heavy atoms =   0.00000
 Electronic spatial extent (au):  <R**2>=             55.6007
 Charge=              0.0000 electrons
 Dipole moment (field-independent basis, Debye):
    X=              0.0000    Y=              2.0267    Z=              2.0267  Tot=              2.8661
 Leave EnFreq:  IXYZ= 0 JXYZ= 9 IStep= 2.
 Current coordinates:
 I=    1 X=   1.889726132886D+00 Y=   0.000000000000D+00 Z=   0.000000000000D+00
 I=    2 X=   1.889726132886D+00 Y=   1.889726132886D+00 Z=   0.000000000000D+00
 I=    3 X=   1.889726132886D+00 Y=   0.000000000000D+00 Z=   1.889537160272D+00
    13 basis functions,    30 primitive gaussians,    13 cartesian basis functions
     5 alpha electrons        5 beta electrons
       nuclear repulsion energy         8.8414622239 Hartrees.
 NAtoms=    3 NActive=    3 NUniq=    3 SFac= 1.00D+00 NAtFMM=   50 NAOKFM=F Big=F
 Initial guess read from the read-write file.
 B after Tr=     0.000000    0.000000    0.000000
         Rot=    1.000000    0.000000    0.000000    0.000000 Ang=   0.00 deg.
 Harris functional with IExCor=  205 diagonalized for initial guess.
 ExpMin= 1.61D-01 ExpMax= 5.48D+03 ExpMxC= 8.25D+02 IAcc=1 IRadAn=         1 AccDes= 0.00D+00
 HarFok:  IExCor=  205 AccDes= 0.00D+00 IRadAn=         1 IDoV= 1
 ScaDFX=  1.000000  1.000000  1.000000  1.000000
 FoFCou: FMM=F IPFlag=           0 FMFlag=      100000 FMFlg1=           0
         NFxFlg=           0 DoJE=T BraDBF=F KetDBF=T FulRan=T
         Omega=  0.000000  0.000000  1.000000  0.000000  0.000000 ICntrl=     500 IOpCl=  0
         NMat0=    1 NMatS0=    1 NMatT0=    0 NMatD0=    1 NMtDS0=    0 NMtDT0=    0
         I1Cent=           4 NGrid=           0.
 Symmetry not used in FoFCou.
 SCF Done:  E(RHF) =  -75.9697068097     A.U. after    7 cycles
             Convg  =    0.2861D-08             -V/T =  2.0014

 **********************************************************************

            Population analysis using the SCF density.

 **********************************************************************

 Alpha  occ. eigenvalues --  -20.57923  -1.35066  -0.66125  -0.58262  -0.50654
 Alpha virt. eigenvalues --    0.18878   0.28310   0.98261   1.15879   1.16246
 Alpha virt. eigenvalues --    1.24824   1.35326   1.74498
          Condensed to atoms (all electrons):
 Mulliken atomic charges:
              1
     1  O   -0.756013
     2  H    0.378001
     3  H    0.378012
 Sum of Mulliken atomic charges =   0.00000
 Mulliken charges with hydrogens summed into heavy atoms:
              1
     1  O    0.000000
 Sum of Mulliken charges with hydrogens summed into heavy atoms =   0.00000
 Electronic spatial extent (au):  <R**2>=             55.5992
 Charge=              0.0000 electrons
 Dipole moment (field-independent basis, Debye):
    X=              0.0000    Y=              2.0266    Z=              2.0267  Tot=              2.8661
 Status after symmetrization of IXYZ=  0 JXYZ=  9:
 Forces:
 I=    1 X=   0.000000000000D+00 Y=  -6.722424559009D-02 Z=  -6.722424528928D-02
 I=    2 X=   0.000000000000D+00 Y=   3.101802683215D-02 Z=   3.620621917154D-02
 I=    3 X=   0.000000000000D+00 Y=   3.620621943474D-02 Z=   3.101802611774D-02
 FFX: 
                1             2             3             4             5 
      1  0.711493D-01
      2  0.000000D+00  0.440152D+00
      3  0.000000D+00  0.000000D+00  0.440152D+00
      4  0.000000D+00  0.000000D+00  0.000000D+00  0.164184D-01
      5  0.000000D+00  0.000000D+00  0.000000D+00  0.000000D+00  0.414389D+00
      6  0.000000D+00  0.000000D+00  0.000000D+00  0.000000D+00  0.000000D+00
      7  0.000000D+00  0.000000D+00  0.000000D+00  0.000000D+00  0.000000D+00
      8  0.000000D+00  0.000000D+00  0.000000D+00  0.000000D+00  0.000000D+00
      9  0.000000D+00  0.000000D+00  0.000000D+00  0.000000D+00  0.000000D+00
                6             7             8             9 
      6  0.781977D-01
      7  0.000000D+00  0.164176D-01
      8  0.000000D+00  0.000000D+00  0.781953D-01
      9  0.000000D+00  0.000000D+00  0.000000D+00  0.414395D+00
 Flags:
       1  2  3  4  5  6  7  8  9
   1  T
   2  F  T
   3  F  F  T
   4  F  F  F  T
   5  F  F  F  F  T
   6  F  F  F  F  F  T
   7  F  F  F  F  F  F  T
   8  F  F  F  F  F  F  F  T
   9  F  F  F  F  F  F  F  F  T
 Numerical evaluation of force constants complete.

 Test job not archived.
 1|1|UNPC-DESKTOP-8BRL880|Force|RHF|6-31G|H2O1|AJZ34|16-Feb-2019|0||#t 
 HF/6-31G nosymm Force(EnOnly, StepSize=1) IOp(1/33=1)||HF Grad of H2O|
 |0,1|O,0,1.,0.,0.|H,0,1.,1.,0.|H,0,1.,0.,1.||Version=IA32W-G09RevB.01|
 HF=-75.969701|RMSD=2.602e-009|RMSF=3.885e-002|Dipole=0.,0.7973507,0.79
 73507|Quadrupole=-1.1736686,0.5868343,0.5868343,1.5067744,1.5067744,-0
 .0388586|PG=C02V [C2(O1),SGV(H2)]||@


 THE ONLY DIFFERENCE BETWEEN ECCENTRICS AND JOGGERS
 IS THAT JOGGERS WEAR SWEATBANDS WHEN THEY RUN IN THE RAIN.
 Job cpu time:  0 days  0 hours  0 minutes 12.0 seconds.
 File lengths (MBytes):  RWF=      5 Int=      0 D2E=      0 Chk=      3 Scr=      1
 Normal termination of Gaussian 09 at Sat Feb 16 10:53:04 2019.
