HF Hess of H2O2                                                         
Freq      RHF                                                         6-31G               
Number of atoms                            I                4
Info1-9                                    I   N=           9
          12          11           0           0           0         100
           6           1           2
Full Title                                 C   N=           2
HF Hess of H2O2         
Route                                      C   N=           2
#p HF/6-31G nosymm Freq 
Charge                                     I                0
Multiplicity                               I                1
Number of electrons                        I               18
Number of alpha electrons                  I                9
Number of beta electrons                   I                9
Number of basis functions                  I               22
Number of independent functions            I               22
Number of point charges in /Mol/           I                0
Number of translation vectors              I                0
Atomic numbers                             I   N=           4
           8           8           1           1
Nuclear charges                            R   N=           4
  8.00000000E+00  8.00000000E+00  1.00000000E+00  1.00000000E+00
Current cartesian coordinates              R   N=          12
  0.00000000E+00  0.00000000E+00  0.00000000E+00  0.00000000E+00  0.00000000E+00
  2.83458920E+00  1.88972613E+00  0.00000000E+00  0.00000000E+00  0.00000000E+00
  1.88972613E+00  2.83458920E+00
Number of symbols in /Mol/                 I                0
Force Field                                I                0
Atom Types                                 C   N=           4
                                                
Int Atom Types                             I   N=           4
           0           0           0           0
MM charges                                 R   N=           4
  0.00000000E+00  0.00000000E+00  0.00000000E+00  0.00000000E+00
Integer atomic weights                     I   N=           4
          16          16           1           1
Real atomic weights                        R   N=           4
  1.59949146E+01  1.59949146E+01  1.00782504E+00  1.00782504E+00
Atom fragment info                         I   N=           4
           0           0           0           0
Atom residue num                           I   N=           4
           0           0           0           0
Nuclear spins                              I   N=           4
           0           0           1           1
Nuclear ZEff                               R   N=           4
 -5.60000000E+00 -5.60000000E+00 -1.00000000E+00 -1.00000000E+00
Nuclear QMom                               R   N=           4
  0.00000000E+00  0.00000000E+00  0.00000000E+00  0.00000000E+00
Nuclear GFac                               R   N=           4
  0.00000000E+00  0.00000000E+00  2.79284600E+00  2.79284600E+00
MicOpt                                     I   N=           4
          -1          -1          -1          -1
Number of residues                         I                0
Number of secondary structures             I                0
Number of contracted shells                I               10
Number of primitive shells                 I               28
Pure/Cartesian d shells                    I                1
Pure/Cartesian f shells                    I                0
Highest angular momentum                   I                1
Largest degree of contraction              I                6
Shell types                                I   N=          10
           0          -1          -1           0          -1          -1
           0           0           0           0
Number of primitives per shell             I   N=          10
           6           3           1           6           3           1
           3           1           3           1
Shell to atom map                          I   N=          10
           1           1           1           2           2           2
           3           3           4           4
Primitive exponents                        R   N=          28
  5.48467166E+03  8.25234946E+02  1.88046958E+02  5.29645000E+01  1.68975704E+01
  5.79963534E+00  1.55396162E+01  3.59993359E+00  1.01376175E+00  2.70005823E-01
  5.48467166E+03  8.25234946E+02  1.88046958E+02  5.29645000E+01  1.68975704E+01
  5.79963534E+00  1.55396162E+01  3.59993359E+00  1.01376175E+00  2.70005823E-01
  1.87311370E+01  2.82539436E+00  6.40121692E-01  1.61277759E-01  1.87311370E+01
  2.82539436E+00  6.40121692E-01  1.61277759E-01
Contraction coefficients                   R   N=          28
  1.83107443E-03  1.39501722E-02  6.84450781E-02  2.32714336E-01  4.70192898E-01
  3.58520853E-01 -1.10777550E-01 -1.48026263E-01  1.13076702E+00  1.00000000E+00
  1.83107443E-03  1.39501722E-02  6.84450781E-02  2.32714336E-01  4.70192898E-01
  3.58520853E-01 -1.10777550E-01 -1.48026263E-01  1.13076702E+00  1.00000000E+00
  3.34946043E-02  2.34726953E-01  8.13757326E-01  1.00000000E+00  3.34946043E-02
  2.34726953E-01  8.13757326E-01  1.00000000E+00
P(S=P) Contraction coefficients            R   N=          28
  0.00000000E+00  0.00000000E+00  0.00000000E+00  0.00000000E+00  0.00000000E+00
  0.00000000E+00  7.08742682E-02  3.39752839E-01  7.27158577E-01  1.00000000E+00
  0.00000000E+00  0.00000000E+00  0.00000000E+00  0.00000000E+00  0.00000000E+00
  0.00000000E+00  7.08742682E-02  3.39752839E-01  7.27158577E-01  1.00000000E+00
  0.00000000E+00  0.00000000E+00  0.00000000E+00  0.00000000E+00  0.00000000E+00
  0.00000000E+00  0.00000000E+00  0.00000000E+00
Coordinates of each shell                  R   N=          30
  0.00000000E+00  0.00000000E+00  0.00000000E+00  0.00000000E+00  0.00000000E+00
  0.00000000E+00  0.00000000E+00  0.00000000E+00  0.00000000E+00  0.00000000E+00
  0.00000000E+00  2.83458920E+00  0.00000000E+00  0.00000000E+00  2.83458920E+00
  0.00000000E+00  0.00000000E+00  2.83458920E+00  1.88972613E+00  0.00000000E+00
  0.00000000E+00  1.88972613E+00  0.00000000E+00  0.00000000E+00  0.00000000E+00
  1.88972613E+00  2.83458920E+00  0.00000000E+00  1.88972613E+00  2.83458920E+00
Constraint Structure                       R   N=          12
  0.00000000E+00  0.00000000E+00  0.00000000E+00  0.00000000E+00  0.00000000E+00
  2.83458920E+00  1.88972613E+00  0.00000000E+00  0.00000000E+00  0.00000000E+00
  1.88972613E+00  2.83458920E+00
Num ILSW                                   I              100
ILSW                                       I   N=         100
           0           1           0           0           2           0
           0           0           0           0           0          -1
           0           0           0           0           0           0
           0           0           0           0           1           0
           1           1           0           0           0           0
           0           0      100000           0          -1           0
           0           0           0           0           0           0
           0           0           0           1           0           0
           0           0           1           0           0           0
           0           0           4          40           0           0
           0           0           0           0           0           0
           0           0           0           0           0           0
           0           0           0           0           0           0
           0           0           0           0           0           0
           0           0           0           0           0           0
           0           0           0           0           0           0
           0           0           0           0
Num RLSW                                   I               40
RLSW                                       R   N=          40
  1.00000000E+00  1.00000000E+00  1.00000000E+00  1.00000000E+00  1.00000000E+00
  0.00000000E+00  0.00000000E+00  1.00000000E+00  0.00000000E+00  0.00000000E+00
  0.00000000E+00  0.00000000E+00  1.00000000E+00  0.00000000E+00  0.00000000E+00
  0.00000000E+00  0.00000000E+00  1.00000000E+00  0.00000000E+00  0.00000000E+00
  0.00000000E+00  0.00000000E+00  1.00000000E+00  0.00000000E+00  0.00000000E+00
  0.00000000E+00  0.00000000E+00  1.00000000E+00  0.00000000E+00  0.00000000E+00
  0.00000000E+00  0.00000000E+00  1.00000000E+00  0.00000000E+00  0.00000000E+00
  0.00000000E+00  0.00000000E+00  0.00000000E+00  1.00000000E+00  1.00000000E+00
MxBond                                     I                2
NBond                                      I   N=           4
           2           2           1           1
IBond                                      I   N=           8
           2           3           1           4           1           0
           2           0
RBond                                      R   N=           8
  1.00000000E+00  1.00000000E+00  1.00000000E+00  1.00000000E+00  1.00000000E+00
  0.00000000E+00  1.00000000E+00  0.00000000E+00
Virial Ratio                               R      2.001420078297492E+00
SCF Energy                                 R     -1.506888209824134E+02
Total Energy                               R     -1.506888209824134E+02
RMS Force                                  R      3.259237459706590E-02
RMS Density                                R      1.122864248900061E-09
External E-field                           R   N=          35
  0.00000000E+00  0.00000000E+00  0.00000000E+00  0.00000000E+00  0.00000000E+00
  0.00000000E+00  0.00000000E+00  0.00000000E+00  0.00000000E+00  0.00000000E+00
  0.00000000E+00  0.00000000E+00  0.00000000E+00  0.00000000E+00  0.00000000E+00
  0.00000000E+00  0.00000000E+00  0.00000000E+00  0.00000000E+00  0.00000000E+00
  0.00000000E+00  0.00000000E+00  0.00000000E+00  0.00000000E+00  0.00000000E+00
  0.00000000E+00  0.00000000E+00  0.00000000E+00  0.00000000E+00  0.00000000E+00
  0.00000000E+00  0.00000000E+00  0.00000000E+00  0.00000000E+00  0.00000000E+00
IOpCl                                      I                0
IROHF                                      I                0
Alpha Orbital Energies                     R   N=          22
 -2.06515654E+01 -2.06513220E+01 -1.48375221E+00 -1.22076809E+00 -7.04328216E-01
 -6.97131504E-01 -5.83533349E-01 -5.15657593E-01 -5.14207033E-01  1.84578892E-01
  1.86962153E-01  2.61815910E-01  1.05035304E+00  1.05814568E+00  1.11660296E+00
  1.13269243E+00  1.21857582E+00  1.24652672E+00  1.32339007E+00  1.32413728E+00
  1.72751953E+00  1.87058922E+00
Alpha MO coefficients                      R   N=         484
  7.04176554E-01  1.53269268E-02  1.16247380E-03  1.02962340E-04  1.14697642E-03
 -4.77420416E-03 -1.44313116E-03 -5.79516361E-05 -4.61806999E-04  7.04176546E-01
  1.53269266E-02  1.02962339E-04  1.16247378E-03 -1.14697641E-03 -4.77420408E-03
 -5.79516355E-05 -1.44313115E-03  4.61806972E-04  2.78827561E-04  1.84145085E-03
  2.78827557E-04  1.84145084E-03  7.04224054E-01  1.53589106E-02  1.08936630E-03
  5.29468588E-05  8.35041911E-04 -6.76783647E-03 -1.12172420E-03 -5.03193311E-05
 -2.23597102E-03 -7.04224062E-01 -1.53589108E-02 -5.29468600E-05 -1.08936632E-03
  8.35041925E-04  6.76783652E-03  5.03193318E-05  1.12172422E-03 -2.23597103E-03
  4.02443127E-04  1.07855218E-03 -4.02443130E-04 -1.07855220E-03 -1.50456934E-01
  3.31013265E-01  5.25648590E-02  9.53838592E-03  7.93900026E-02  3.20992250E-01
  3.94360267E-02  9.81030739E-03  3.66663419E-02 -1.50456934E-01  3.31013265E-01
  9.53838592E-03  5.25648590E-02 -7.93900026E-02  3.20992250E-01  9.81030739E-03
  3.94360267E-02 -3.66663419E-02  8.42279705E-02 -2.16973471E-02  8.42279705E-02
 -2.16973471E-02 -1.57352192E-01  3.55796425E-01  8.63937702E-02 -1.44744133E-03
 -5.45649488E-02  4.18680979E-01  4.83789168E-02  3.76245982E-03  7.40940221E-03
  1.57352192E-01 -3.55796425E-01  1.44744133E-03 -8.63937702E-02 -5.45649488E-02
 -4.18680979E-01 -3.76245982E-03 -4.83789168E-02  7.40940221E-03  1.21954483E-01
 -8.10771475E-04 -1.21954483E-01  8.10771475E-04  3.25574298E-02 -7.50663942E-02
  3.33357349E-01  1.79604139E-01 -7.84887393E-02 -1.27316759E-01  1.96030803E-01
  1.18672069E-01 -4.53480548E-02  3.25574298E-02 -7.50663942E-02  1.79604139E-01
  3.33357349E-01  7.84887393E-02 -1.27316759E-01  1.18672069E-01  1.96030803E-01
  4.53480548E-02  1.85301047E-01  9.12117715E-02  1.85301047E-01  9.12117715E-02
  4.63960056E-02 -1.12956677E-01  3.22095412E-01 -2.09023001E-01  4.40873173E-02
 -1.64278513E-01  1.89041323E-01 -1.42485010E-01  4.35463022E-02 -4.63960056E-02
  1.12956677E-01  2.09023001E-01 -3.22095412E-01  4.40873173E-02  1.64278513E-01
  1.42485010E-01 -1.89041323E-01  4.35463022E-02  1.63324746E-01  8.76388679E-02
 -1.63324746E-01 -8.76388679E-02  3.21619950E-02 -9.50427220E-02  1.61997845E-03
  1.69831732E-01  3.99719355E-01 -1.03612208E-01  2.10258029E-02  1.31754758E-01
  2.80018180E-01  3.21619950E-02 -9.50427220E-02  1.69831732E-01  1.61997844E-03
 -3.99719355E-01 -1.03612208E-01  1.31754758E-01  2.10258029E-02 -2.80018180E-01
 -5.08932566E-02 -5.10780691E-02 -5.08932566E-02 -5.10780691E-02  2.31921359E-02
 -6.35166748E-02  2.01813241E-01  4.25753901E-01  4.40054640E-02 -7.03020993E-02
  1.35264103E-01  3.17772441E-01  5.09404564E-02 -2.31921359E-02  6.35166749E-02
 -4.25753901E-01 -2.01813241E-01  4.40054641E-02  7.03020993E-02 -3.17772441E-01
 -1.35264103E-01  5.09404564E-02  1.06685506E-01  6.08972290E-02 -1.06685506E-01
 -6.08972291E-02 -2.62360738E-02  6.39912409E-02 -1.97217238E-01  4.04896943E-01
 -1.42771973E-01  1.15785094E-01 -1.39604254E-01  2.99164885E-01 -9.91714572E-02
 -2.62360738E-02  6.39912409E-02  4.04896943E-01 -1.97217238E-01  1.42771973E-01
  1.15785094E-01  2.99164885E-01 -1.39604254E-01  9.91714572E-02 -9.95658978E-02
 -3.18645415E-02 -9.95658978E-02 -3.18645414E-02  4.97470410E-02 -7.68324936E-02
 -1.99604962E-01 -2.07120100E-02  3.15498783E-02 -6.30631082E-01 -4.00076351E-01
 -2.81733847E-02  2.91402195E-02  4.97470410E-02 -7.68324936E-02 -2.07120100E-02
 -1.99604962E-01 -3.15498783E-02 -6.30631082E-01 -2.81733847E-02 -4.00076351E-01
 -2.91402195E-02  6.72992105E-02  1.01198785E+00  6.72992105E-02  1.01198785E+00
 -6.67808096E-02  1.33743097E-01  8.20239409E-02 -1.91415485E-02  3.86392731E-01
  6.49503075E-01  1.97821434E-01 -4.42738156E-02  5.48218213E-01  6.67808096E-02
 -1.33743097E-01  1.91415485E-02 -8.20239409E-02  3.86392731E-01 -6.49503075E-01
  4.42738156E-02 -1.97821434E-01  5.48218213E-01 -2.09597456E-02 -6.40905547E-01
  2.09597456E-02  6.40905548E-01 -1.09969181E-03  4.46628180E-02 -2.18912269E-01
  1.17667064E-02  2.83249086E-01 -2.31479565E-01 -4.20606695E-01  1.84096616E-02
  4.42164757E-01  1.09969181E-03 -4.46628180E-02 -1.17667064E-02  2.18912269E-01
  2.83249086E-01  2.31479565E-01 -1.84096616E-02  4.20606695E-01  4.42164757E-01
  1.03312002E-01  1.00232819E+00 -1.03312002E-01 -1.00232819E+00  1.65744036E-02
 -6.19797682E-02 -3.57584506E-01  5.17664018E-02 -1.81488507E-01  5.95392145E-02
 -1.70214404E-02  3.92558929E-03  2.04412652E-01  1.65744036E-02 -6.19797682E-02
  5.17664018E-02 -3.57584506E-01  1.81488507E-01  5.95392145E-02  3.92558928E-03
 -1.70214404E-02 -2.04412652E-01  8.66836885E-01 -5.86409588E-01  8.66836885E-01
 -5.86409588E-01  2.21164703E-02 -1.95390123E-01 -2.28470524E-01 -1.21185893E-01
 -3.52392613E-01  4.21942733E-01 -7.14613680E-02  6.49398919E-02  5.39899242E-01
 -2.21164703E-02  1.95390123E-01  1.21185893E-01  2.28470524E-01 -3.52392613E-01
 -4.21942733E-01 -6.49398919E-02  7.14613680E-02  5.39899242E-01  7.76705495E-01
 -5.91480480E-01 -7.76705495E-01  5.91480480E-01 -3.63465748E-02  2.36120604E-01
 -1.88558423E-01  4.94691111E-01 -3.49320983E-01  1.27124747E-01  2.28649893E-01
 -5.05465831E-01  6.22500701E-01  3.63465748E-02 -2.36120604E-01 -4.94691111E-01
  1.88558423E-01 -3.49320983E-01 -1.27124747E-01  5.05465831E-01 -2.28649893E-01
  6.22500701E-01 -2.12366661E-01  6.56938281E-02  2.12366661E-01 -6.56938281E-02
 -2.51783628E-02  2.28026027E-01 -2.48757283E-01 -5.96270288E-01 -8.77716909E-02
 -1.38087923E-01  2.55178354E-01  6.32041548E-01  9.45839479E-02 -2.51783628E-02
  2.28026027E-01 -5.96270288E-01 -2.48757283E-01  8.77716909E-02 -1.38087923E-01
  6.32041548E-01  2.55178354E-01 -9.45839479E-02 -1.21693376E-01 -6.40335914E-02
 -1.21693376E-01 -6.40335914E-02 -4.27607772E-02  2.54265316E-01 -1.05869880E-01
 -4.37418935E-01 -3.06672276E-01  9.25030660E-02  3.90442240E-01  6.26026230E-01
  7.02400773E-01  4.27607772E-02 -2.54265316E-01  4.37418935E-01  1.05869880E-01
 -3.06672276E-01 -9.25030660E-02 -6.26026230E-01 -3.90442240E-01  7.02400773E-01
 -4.96144935E-01  4.86111753E-01  4.96144935E-01 -4.86111753E-01 -3.56292676E-02
  3.30643353E-01 -4.90504519E-01  2.87429100E-01  5.44935034E-02 -1.93603559E-01
  8.49809021E-01 -4.95522490E-01 -3.97565987E-02 -3.56292676E-02  3.30643353E-01
  2.87429100E-01 -4.90504519E-01 -5.44935034E-02 -1.93603559E-01 -4.95522490E-01
  8.49809021E-01  3.97565987E-02 -3.53110579E-01  6.40214697E-02 -3.53110579E-01
  6.40214697E-02  8.61552194E-03 -1.01688694E-01 -6.34941935E-01 -1.01175212E-02
  2.87705784E-01  7.40092606E-02  9.84248493E-01  1.15175762E-01 -6.56579888E-01
 -8.61552191E-03  1.01688694E-01  1.01175212E-02  6.34941935E-01  2.87705784E-01
 -7.40092600E-02 -1.15175762E-01 -9.84248493E-01 -6.56579887E-01  7.03005952E-03
 -6.98629024E-01 -7.03005941E-03  6.98629024E-01  2.85908895E-02 -4.56467309E-01
 -2.06593311E-01 -9.92348050E-02  6.01702316E-01  8.02732409E-01  2.67729996E-01
  1.16714387E-01 -6.43110576E-01  2.85908895E-02 -4.56467309E-01 -9.92348050E-02
 -2.06593312E-01 -6.01702317E-01  8.02732409E-01  1.16714387E-01  2.67729997E-01
  6.43110576E-01  1.45283446E-01 -4.46894653E-01  1.45283446E-01 -4.46894654E-01
  4.76680090E-02 -1.02664198E+00 -1.89442410E-01 -1.60095437E-02 -3.70938250E-01
  1.24418138E+00  6.61986066E-01 -4.26437955E-02  2.84335339E-01  4.76680090E-02
 -1.02664198E+00 -1.60095437E-02 -1.89442410E-01  3.70938250E-01  1.24418138E+00
 -4.26437955E-02  6.61986066E-01 -2.84335339E-01 -4.04560089E-01 -4.78020577E-01
 -4.04560089E-01 -4.78020577E-01  6.11699302E-03 -1.26406564E+00 -3.28193978E-02
  2.74667674E-02 -1.25751949E-01  2.64880820E+00  4.00002634E-01  1.68767360E-02
  1.30841879E+00 -6.11699302E-03  1.26406564E+00 -2.74667674E-02  3.28193978E-02
 -1.25751949E-01 -2.64880820E+00 -1.68767360E-02 -4.00002634E-01  1.30841879E+00
 -5.64267834E-01 -6.87276712E-02  5.64267834E-01  6.87276712E-02
Total SCF Density                          R   N=         253
  2.08933263E+00 -1.96146098E-01  5.44376458E-01  3.15734699E-02 -7.76532034E-02
  6.09455819E-01 -4.69175437E-04 -9.00169333E-03 -1.46247371E-03  9.00184174E-01
  3.02981617E-02 -8.42284141E-02  5.03646730E-02  1.26736424E-02  3.98964346E-01
 -2.84142773E-01  6.09753013E-01 -1.59028950E-01  2.65584999E-02 -1.11325745E-01
  7.01358865E-01  1.45537351E-02 -5.07291678E-02  3.74703704E-01  1.26922763E-03
  5.54498205E-02 -1.01873867E-01  2.32583136E-01 -2.26595321E-03 -3.58309570E-03
 -2.98599266E-04  6.59969403E-01  1.78270402E-02  2.33411321E-02  1.77126535E-03
  4.84667423E-01  9.50156004E-03 -4.59564590E-02  6.35317487E-02  2.43636413E-02
  2.72625303E-01 -6.11362580E-02  5.55456455E-02  2.44281306E-02  1.92394697E-01
 -4.19417300E-03  1.13861382E-02  4.38415200E-03 -2.23459363E-03 -1.86619465E-02
  3.54522909E-02  5.32327248E-04 -2.79242895E-03  7.65643123E-03  2.08933263E+00
  1.13861382E-02 -3.01058265E-02 -3.86917372E-03  6.78274543E-03  2.44764900E-02
 -7.77788249E-02  2.67586628E-04  7.42217868E-03 -2.37463899E-02 -1.96146098E-01
  5.44376458E-01 -2.23459363E-03  6.78274543E-03 -7.53522056E-02  3.47784625E-04
 -2.57233912E-02  1.13576185E-02 -7.07513718E-02 -3.10805584E-04 -2.59366636E-02
 -4.69175437E-04 -9.00169333E-03  9.00184174E-01  4.38415200E-03 -3.86917372E-03
  1.69938412E-03 -7.53522056E-02 -2.31075108E-02 -3.52801726E-02  5.24032396E-03
 -7.45462654E-02 -3.62451038E-02  3.15734699E-02 -7.76532034E-02 -1.46247371E-03
  6.09455819E-01  1.86619465E-02 -2.44764900E-02  2.31075108E-02  2.57233912E-02
 -3.71531532E-01 -2.14231867E-02 -8.86600202E-03  1.21593655E-02 -2.57603953E-01
 -3.02981617E-02  8.42284141E-02 -1.26736424E-02 -5.03646730E-02  3.98964346E-01
  3.54522909E-02 -7.77788249E-02 -3.52801726E-02  1.13576185E-02  2.14231867E-02
 -1.27718657E-01 -2.06664503E-02  1.27700647E-02 -3.06657206E-02 -2.84142773E-01
  6.09753013E-01  2.65584999E-02 -1.59028950E-01  1.11325745E-01  7.01358865E-01
 -2.79242895E-03  7.42217868E-03 -7.45462654E-02 -3.10805584E-04 -1.21593655E-02
  1.27700647E-02 -6.31476528E-02 -5.14421407E-04 -1.56149412E-02 -2.26595321E-03
 -3.58309570E-03  6.59969403E-01 -2.98599266E-04 -1.78270402E-02  2.33411321E-02
  4.84667423E-01  5.32327248E-04  2.67586628E-04  5.24032396E-03 -7.07513718E-02
  8.86600202E-03 -2.06664503E-02  7.08402643E-03 -6.31476528E-02 -6.38808538E-03
  1.45537351E-02 -5.07291678E-02  1.26922763E-03  3.74703704E-01 -5.54498205E-02
 -1.01873867E-01  1.77126535E-03  2.32583136E-01 -7.65643123E-03  2.37463899E-02
  3.62451038E-02  2.59366636E-02 -2.57603953E-01  3.06657206E-02  6.38808538E-03
  1.56149412E-02 -1.74190260E-01 -9.50156004E-03  4.59564590E-02 -2.43636413E-02
 -6.35317487E-02  2.72625303E-01  6.11362580E-02 -2.44281306E-02 -5.55456455E-02
  1.92394697E-01 -2.86450749E-02  6.12257535E-02  3.40852263E-01 -7.53262778E-03
 -1.74869518E-02  2.78290372E-02  2.07362196E-01 -5.17298059E-03  7.51545185E-03
  6.77298298E-03 -1.14631296E-02 -5.19591925E-02  2.15928299E-03  3.84517160E-02
 -3.90763103E-02 -4.95298371E-02  2.54051722E-03  4.62825764E-02  2.13728452E-01
  2.61792417E-02 -5.04491332E-02  1.51836604E-01  4.41727116E-03 -3.63167059E-02
 -7.20170526E-02  9.03212257E-02  2.41985223E-03 -1.83307235E-02  7.17044496E-04
  5.70802293E-03 -2.60224261E-02 -9.95969065E-03  6.26715608E-02  4.08350754E-03
 -2.50246733E-02 -8.73534450E-03  4.59709728E-02  8.31175640E-02  4.76178710E-02
  6.77298298E-03 -1.14631296E-02  2.15928299E-03 -5.19591925E-02 -3.84517160E-02
 -3.90763103E-02  2.54051722E-03 -4.95298371E-02 -4.62825764E-02 -2.86450749E-02
  6.12257535E-02 -7.53262778E-03  3.40852263E-01  1.74869518E-02  2.78290372E-02
 -5.17298059E-03  2.07362196E-01 -7.51545185E-03  2.00914120E-03  2.69546458E-04
  2.13728452E-01  7.17044496E-04  5.70802293E-03 -9.95969065E-03 -2.60224261E-02
 -6.26715608E-02  4.08350754E-03 -8.73534450E-03 -2.50246733E-02 -4.59709728E-02
  2.61792417E-02 -5.04491332E-02  4.41727116E-03  1.51836604E-01  3.63167059E-02
 -7.20170526E-02  2.41985223E-03  9.03212257E-02  1.83307235E-02  2.69546458E-04
  2.05441382E-03  8.31175640E-02  4.76178710E-02
Grdnt Energy                               R     -1.506888209824134E+02
Grdnt NVar                                 I               12
Grdnt IGetFC                               I                4
Internal Forces                            R   N=          12
  5.86213079E-02 -1.35242083E-02  1.72652438E-02 -1.35242083E-02  5.86213079E-02
 -1.72652438E-02 -3.78429576E-02 -7.25414208E-03 -3.11675261E-02 -7.25414208E-03
 -3.78429576E-02  3.11675261E-02
Internal Force Constants                   R   N=          78
  4.33172437E-01 -4.95858514E-03  6.99831297E-02 -2.02088805E-02  4.19346129E-02
  3.20811914E-01 -3.47943681E-02  3.51631138E-03 -2.09765870E-03  6.99831299E-02
  2.42103064E-03 -3.47943675E-02 -4.50911318E-02 -4.95858534E-03  4.33172435E-01
  4.50911319E-02  2.09765850E-03 -2.30899145E-01 -4.19346129E-02  2.02088811E-02
  3.20811914E-01 -4.07668637E-01  3.69250422E-03  2.23061705E-02 -1.91747115E-03
  4.03678672E-04 -3.15614979E-03  4.10356287E-01  2.13387604E-03 -3.32712907E-02
  3.69251025E-07 -2.25023046E-03  9.29056847E-03 -3.68732132E-07 -4.60891220E-03
  2.47509012E-02 -2.91193214E-02  1.89911811E-03 -3.41669966E-02  4.59313896E-02
 -4.23707040E-03 -5.57457722E-02 -2.05246258E-02  3.71255711E-03  9.44915541E-02
  9.29056845E-03 -2.25023046E-03  3.68719026E-07 -3.32712906E-02  2.13387603E-03
 -3.69244741E-07 -7.70179002E-04  4.72526663E-03  3.71255764E-03  2.47509012E-02
  4.03678465E-04 -1.91747153E-03  3.15614967E-03  3.69250442E-03 -4.07668636E-01
 -2.23061708E-02  5.12729312E-04 -7.70179000E-04 -1.37460481E-03 -4.60891220E-03
  4.10356286E-01  4.23707001E-03 -4.59313895E-02 -5.57457723E-02 -1.89911801E-03
  2.91193211E-02 -3.41669965E-02  1.37460511E-03 -3.71255763E-03 -4.57878533E-03
 -3.71255712E-03  2.05246260E-02  9.44915541E-02
QEq coupling tensors                       R   N=          24
 -3.21618835E-01 -1.52230149E-02  3.01637385E+00  6.00547639E-01  1.42126815E-01
 -2.69475501E+00  3.01637385E+00 -1.52230149E-02 -3.21618835E-01 -1.42126815E-01
 -6.00547639E-01 -2.69475501E+00 -4.04050957E-01  4.49852514E-03  2.38879382E-01
  4.00879075E-02 -6.35758565E-03  1.65171575E-01  2.38879382E-01  4.49852514E-03
 -4.04050957E-01  6.35758565E-03 -4.00879075E-02  1.65171575E-01
Mulliken Charges                           R   N=           4
 -4.36644741E-01 -4.36644741E-01  4.36644741E-01  4.36644741E-01
ONIOM Charges                              I   N=          16
           0           0           0           0           0           0
           0           0           0           0           0           0
           0           0           0           0
ONIOM Multiplicities                       I   N=          16
           1           0           0           0           0           0
           0           0           0           0           0           0
           0           0           0           0
Atom Layers                                I   N=           4
           1           1           1           1
Atom Modifiers                             I   N=           4
           0           0           0           0
Force Field                                I                0
Atom Modified Types                        C   N=           4
                                                
Int Atom Modified Types                    I   N=           4
           0           0           0           0
Link Atoms                                 I   N=           4
           0           0           0           0
Atom Modified MM Charges                   R   N=           4
  0.00000000E+00  0.00000000E+00  0.00000000E+00  0.00000000E+00
Link Distances                             R   N=          16
  0.00000000E+00  0.00000000E+00  0.00000000E+00  0.00000000E+00  0.00000000E+00
  0.00000000E+00  0.00000000E+00  0.00000000E+00  0.00000000E+00  0.00000000E+00
  0.00000000E+00  0.00000000E+00  0.00000000E+00  0.00000000E+00  0.00000000E+00
  0.00000000E+00
Cartesian Gradient                         R   N=          12
 -5.86213079E-02  1.35242083E-02 -1.72652438E-02  1.35242083E-02 -5.86213079E-02
  1.72652438E-02  3.78429576E-02  7.25414208E-03  3.11675261E-02  7.25414208E-03
  3.78429576E-02 -3.11675261E-02
Cartesian Force Constants                  R   N=          78
  4.33172437E-01 -4.95858514E-03  6.99831297E-02 -2.02088805E-02  4.19346129E-02
  3.20811914E-01 -3.47943681E-02  3.51631138E-03 -2.09765870E-03  6.99831299E-02
  2.42103064E-03 -3.47943675E-02 -4.50911318E-02 -4.95858534E-03  4.33172435E-01
  4.50911319E-02  2.09765850E-03 -2.30899145E-01 -4.19346129E-02  2.02088811E-02
  3.20811914E-01 -4.07668637E-01  3.69250422E-03  2.23061705E-02 -1.91747115E-03
  4.03678672E-04 -3.15614979E-03  4.10356287E-01  2.13387604E-03 -3.32712907E-02
  3.69251025E-07 -2.25023046E-03  9.29056847E-03 -3.68732132E-07 -4.60891220E-03
  2.47509012E-02 -2.91193214E-02  1.89911811E-03 -3.41669966E-02  4.59313896E-02
 -4.23707040E-03 -5.57457722E-02 -2.05246258E-02  3.71255711E-03  9.44915541E-02
  9.29056845E-03 -2.25023046E-03  3.68719026E-07 -3.32712906E-02  2.13387603E-03
 -3.69244741E-07 -7.70179002E-04  4.72526663E-03  3.71255764E-03  2.47509012E-02
  4.03678465E-04 -1.91747153E-03  3.15614967E-03  3.69250442E-03 -4.07668636E-01
 -2.23061708E-02  5.12729312E-04 -7.70179000E-04 -1.37460481E-03 -4.60891220E-03
  4.10356286E-01  4.23707001E-03 -4.59313895E-02 -5.57457723E-02 -1.89911801E-03
  2.91193211E-02 -3.41669965E-02  1.37460511E-03 -3.71255763E-03 -4.57878533E-03
 -3.71255712E-03  2.05246260E-02  9.44915541E-02
Dipole Moment                              R   N=           3
  8.62677933E-01  8.62677933E-01  1.71240799E-12
Dipole Derivatives                         R   N=          36
 -1.46628885E-01  6.50493112E-03  1.59176364E-01  2.86140996E-02 -4.41206223E-01
  1.46125757E-01 -8.40809304E-03 -2.83743315E-02 -2.37320845E-01 -4.41206224E-01
  2.86141002E-02 -1.46125758E-01  6.50493201E-03 -1.46628888E-01 -1.59176362E-01
  2.83743307E-02  8.40809454E-03 -2.37320846E-01  1.61330675E-01 -5.11397515E-03
 -1.30506379E-02 -3.00050564E-02  4.26504434E-01 -3.17622981E-08 -2.20525651E-02
 -2.08632639E-03  2.37320845E-01  4.26504434E-01 -3.00050561E-02  3.15250406E-08
 -5.11397518E-03  1.61330676E-01  1.30506374E-02  2.08632740E-03  2.20525634E-02
  2.37320847E-01
Polarizability                             R   N=           6
  6.71954068E+00 -1.88613174E-01  6.71954068E+00 -1.49074026E+00  1.49074026E+00
  1.74115030E+01
Polarizability Derivatives                 R   N=          72
 -7.65715505E+00 -1.52774236E-01  2.08433497E-01 -1.95133560E+00 -2.34828779E-01
 -2.02922721E+00 -1.60515616E-01 -1.71885587E+00 -9.58729714E-01  6.49668045E-02
 -4.16659699E+00  8.33143470E-01 -3.69931790E-01  2.55403237E-02 -2.88951443E-01
 -2.73893474E-01 -1.30409813E+00 -1.91373355E+01 -9.58729653E-01 -1.71885588E+00
 -1.60515559E-01  4.16659696E+00 -6.49667849E-02  8.33143470E-01  2.08433620E-01
 -1.52774248E-01 -7.65715492E+00  2.34828736E-01  1.95133565E+00 -2.02922721E+00
  2.88951396E-01 -2.55403190E-02  3.69931738E-01 -1.30409812E+00 -2.73893492E-01
  1.91373355E+01  8.63987939E+00 -3.92555348E-01 -2.23543066E-01 -2.89134792E+00