 Entering Link 1 = D:\G09W\l1.exe PID=      1160.
  
 Copyright (c) 1988,1990,1992,1993,1995,1998,2003,2009,2010,
            Gaussian, Inc.  All Rights Reserved.
  
 This is part of the Gaussian(R) 09 program.  It is based on
 the Gaussian(R) 03 system (copyright 2003, Gaussian, Inc.),
 the Gaussian(R) 98 system (copyright 1998, Gaussian, Inc.),
 the Gaussian(R) 94 system (copyright 1995, Gaussian, Inc.),
 the Gaussian 92(TM) system (copyright 1992, Gaussian, Inc.),
 the Gaussian 90(TM) system (copyright 1990, Gaussian, Inc.),
 the Gaussian 88(TM) system (copyright 1988, Gaussian, Inc.),
 the Gaussian 86(TM) system (copyright 1986, Carnegie Mellon
 University), and the Gaussian 82(TM) system (copyright 1983,
 Carnegie Mellon University). Gaussian is a federally registered
 trademark of Gaussian, Inc.
  
 This software contains proprietary and confidential information,
 including trade secrets, belonging to Gaussian, Inc.
  
 This software is provided under written license and may be
 used, copied, transmitted, or stored only in accord with that
 written license.
  
 The following legend is applicable only to US Government
 contracts under FAR:
  
                    RESTRICTED RIGHTS LEGEND
  
 Use, reproduction and disclosure by the US Government is
 subject to restrictions as set forth in subparagraphs (a)
 and (c) of the Commercial Computer Software - Restricted
 Rights clause in FAR 52.227-19.
  
 Gaussian, Inc.
 340 Quinnipiac St., Bldg. 40, Wallingford CT 06492
  
  
 ---------------------------------------------------------------
 Warning -- This program may not be used in any manner that
 competes with the business of Gaussian, Inc. or will provide
 assistance to any competitor of Gaussian, Inc.  The licensee
 of this program is prohibited from giving any competitor of
 Gaussian, Inc. access to this program.  By using this program,
 the user acknowledges that Gaussian, Inc. is engaged in the
 business of creating and licensing software in the field of
 computational chemistry and represents and warrants to the
 licensee that it is not a competitor of Gaussian, Inc. and that
 it will not use this program in any manner prohibited above.
 ---------------------------------------------------------------
  

 Cite this work as:
 Gaussian 09, Revision B.01,
 M. J. Frisch, G. W. Trucks, H. B. Schlegel, G. E. Scuseria, 
 M. A. Robb, J. R. Cheeseman, G. Scalmani, V. Barone, B. Mennucci, 
 G. A. Petersson, H. Nakatsuji, M. Caricato, X. Li, H. P. Hratchian, 
 A. F. Izmaylov, J. Bloino, G. Zheng, J. L. Sonnenberg, M. Hada, 
 M. Ehara, K. Toyota, R. Fukuda, J. Hasegawa, M. Ishida, T. Nakajima, 
 Y. Honda, O. Kitao, H. Nakai, T. Vreven, J. A. Montgomery, Jr., 
 J. E. Peralta, F. Ogliaro, M. Bearpark, J. J. Heyd, E. Brothers, 
 K. N. Kudin, V. N. Staroverov, T. Keith, R. Kobayashi, J. Normand, 
 K. Raghavachari, A. Rendell, J. C. Burant, S. S. Iyengar, J. Tomasi, 
 M. Cossi, N. Rega, J. M. Millam, M. Klene, J. E. Knox, J. B. Cross, 
 V. Bakken, C. Adamo, J. Jaramillo, R. Gomperts, R. E. Stratmann, 
 O. Yazyev, A. J. Austin, R. Cammi, C. Pomelli, J. W. Ochterski, 
 R. L. Martin, K. Morokuma, V. G. Zakrzewski, G. A. Voth, 
 P. Salvador, J. J. Dannenberg, S. Dapprich, A. D. Daniels, 
 O. Farkas, J. B. Foresman, J. V. Ortiz, J. Cioslowski, 
 and D. J. Fox, Gaussian, Inc., Wallingford CT, 2010.
 
 ******************************************
 Gaussian 09:  IA32W-G09RevB.01 12-Aug-2010
                16-Feb-2019 
 ******************************************
 %chk=HF-hess
 -----------------------
 #p HF/6-31G nosymm Freq
 -----------------------
 1/10=4,30=1,38=1/1,3;
 2/12=2,15=1,17=6,18=5,40=1/2;
 3/5=1,6=6,11=9,16=1,25=1,30=1,71=2/1,2,3;
 4//1;
 5/5=2,38=5,98=1/2;
 8/6=4,10=90,11=11/1;
 10/13=10,15=4,31=1/2;
 11/6=3,8=1,9=11,15=111,16=1,31=1/1,2,10;
 10/6=1,31=1/2;
 6/7=2,8=2,9=2,10=2,18=1,28=1/1;
 7/8=1,10=1,25=1,30=1/1,2,3,16;
 1/10=4,30=1/3;
 99//99;
 Leave Link    1 at Sat Feb 16 13:23:16 2019, MaxMem=          0 cpu:       0.0
 (Enter D:\G09W\l101.exe)
 ---------------
 HF Hess of H2O2
 ---------------
 Symbolic Z-matrix:
 Charge =  0 Multiplicity = 1
 O                     0.        0.        0. 
 O                     0.        0.        1.5 
 H                     1.        0.        0. 
 H                     0.        1.        1.5 
 
 NAtoms=      4 NQM=      4 NQMF=      0 NMic=      0 NMicF=      0 NTot=      4.
                    Isotopes and Nuclear Properties:
 (Nuclear quadrupole moments (NQMom) in fm**2, nuclear magnetic moments (NMagM)
  in nuclear magnetons)

  Atom         1           2           3           4
 IAtWgt=          16          16           1           1
 AtmWgt=  15.9949146  15.9949146   1.0078250   1.0078250
 NucSpn=           0           0           1           1
 AtZEff=   0.0000000   0.0000000   0.0000000   0.0000000
 NQMom=    0.0000000   0.0000000   0.0000000   0.0000000
 NMagM=    0.0000000   0.0000000   2.7928460   2.7928460
 Leave Link  101 at Sat Feb 16 13:23:16 2019, MaxMem=   33554432 cpu:       0.0
 (Enter D:\G09W\l103.exe)

 GradGradGradGradGradGradGradGradGradGradGradGradGradGradGradGradGradGrad
 Berny optimization.
 Initialization pass.
 Trust Radius=3.00D-01 FncErr=1.00D-07 GrdErr=1.00D-07
 Number of steps in this run=      2 maximum allowed number of steps=      2.
 GradGradGradGradGradGradGradGradGradGradGradGradGradGradGradGradGradGrad

 Leave Link  103 at Sat Feb 16 13:23:16 2019, MaxMem=   33554432 cpu:       0.0
 (Enter D:\G09W\l202.exe)
                          Input orientation:                          
 ---------------------------------------------------------------------
 Center     Atomic      Atomic             Coordinates (Angstroms)
 Number     Number       Type             X           Y           Z
 ---------------------------------------------------------------------
      1          8           0        0.000000    0.000000    0.000000
      2          8           0        0.000000    0.000000    1.500000
      3          1           0        1.000000    0.000000    0.000000
      4          1           0        0.000000    1.000000    1.500000
 ---------------------------------------------------------------------
                    Distance matrix (angstroms):
                    1          2          3          4
     1  O    0.000000
     2  O    1.500000   0.000000
     3  H    1.000000   1.802776   0.000000
     4  H    1.802776   1.000000   2.061553   0.000000
 Symmetry turned off by external request.
 Stoichiometry    H2O2
 Framework group  C2[X(H2O2)]
 Deg. of freedom     4
 Full point group                 C2      NOp   2
 Rotational constants (GHZ):    266.9627641     25.0983976     25.0945285
 Leave Link  202 at Sat Feb 16 13:23:16 2019, MaxMem=   33554432 cpu:       0.0
 (Enter D:\G09W\l301.exe)
 Standard basis: 6-31G (6D, 7F)
 Ernie: Thresh=  0.10000D-02 Tol=  0.10000D-05 Strict=F.
 Integral buffers will be    262144 words long.
 Raffenetti 1 integral format.
 Two-electron integral symmetry is turned off.
    22 basis functions,    52 primitive gaussians,    22 cartesian basis functions
     9 alpha electrons        9 beta electrons
       nuclear repulsion energy        35.9983067771 Hartrees.
 IExCor=    0 DFT=F Ex=HF Corr=None ExCW=0 ScaHFX=  1.000000
 ScaDFX=  1.000000  1.000000  1.000000  1.000000 ScalE2=  1.000000  1.000000
 IRadAn=      0 IRanWt=     -1 IRanGd=            0 ICorTp=0
 NAtoms=    4 NActive=    4 NUniq=    4 SFac= 1.00D+00 NAtFMM=   50 NAOKFM=F Big=F
 Leave Link  301 at Sat Feb 16 13:23:16 2019, MaxMem=   33554432 cpu:       0.0
 (Enter D:\G09W\l302.exe)
 NPDir=0 NMtPBC=     1 NCelOv=     1 NCel=       1 NClECP=     1 NCelD=      1
         NCelK=      1 NCelE2=     1 NClLst=     1 CellRange=     0.0.
 One-electron integrals computed using PRISM.
 NBasis=    22 RedAO= T  NBF=    22
 NBsUse=    22 1.00D-06 NBFU=    22
 Leave Link  302 at Sat Feb 16 13:23:16 2019, MaxMem=   33554432 cpu:       0.0
 (Enter D:\G09W\l303.exe)
 DipDrv:  MaxL=1.
 Leave Link  303 at Sat Feb 16 13:23:16 2019, MaxMem=   33554432 cpu:       0.0
 (Enter D:\G09W\l401.exe)
 Harris functional with IExCor=  205 diagonalized for initial guess.
 ExpMin= 1.61D-01 ExpMax= 5.48D+03 ExpMxC= 8.25D+02 IAcc=1 IRadAn=         1 AccDes= 0.00D+00
 HarFok:  IExCor=  205 AccDes= 0.00D+00 IRadAn=         1 IDoV= 1
 ScaDFX=  1.000000  1.000000  1.000000  1.000000
 FoFCou: FMM=F IPFlag=           0 FMFlag=      100000 FMFlg1=           0
         NFxFlg=           0 DoJE=T BraDBF=F KetDBF=T FulRan=T
         Omega=  0.000000  0.000000  1.000000  0.000000  0.000000 ICntrl=     500 IOpCl=  0
         NMat0=    1 NMatS0=    1 NMatT0=    0 NMatD0=    1 NMtDS0=    0 NMtDT0=    0
         I1Cent=           4 NGrid=           0.
 Symmetry not used in FoFCou.
 Harris En= -150.807022594103    
 Leave Link  401 at Sat Feb 16 13:23:16 2019, MaxMem=   33554432 cpu:       0.0
 (Enter D:\G09W\l502.exe)
 Closed shell SCF:
 Requested convergence on RMS density matrix=1.00D-08 within 128 cycles.
 Requested convergence on MAX density matrix=1.00D-06.
 Requested convergence on             energy=1.00D-06.
 No special actions if energy rises.
 Using DIIS extrapolation, IDIIS=  1040.
 Two-electron integral symmetry not used.
 Keep R1 ints in memory in canonical form, NReq=851990.
 IEnd=       19845 IEndB=       19845 NGot=    33554432 MDV=    33519575
 LenX=    33519575 LenY=    33518650
 Symmetry not used in FoFDir.
 MinBra= 0 MaxBra= 1 Meth= 1.
 IRaf=       0 NMat=   1 IRICut=       1 DoRegI=T DoRafI=F ISym2E= 0 JSym2E=0.

 Cycle   1  Pass 1  IDiag  1:
 E= -150.652773798560    
 DIIS: error= 4.59D-02 at cycle   1 NSaved=   1.
 NSaved= 1 IEnMin= 1 EnMin= -150.652773798560     IErMin= 1 ErrMin= 4.59D-02
 ErrMax= 4.59D-02 EMaxC= 1.00D-01 BMatC= 6.11D-02 BMatP= 6.11D-02
 IDIUse=3 WtCom= 5.41D-01 WtEn= 4.59D-01
 Coeff-Com:  0.100D+01
 Coeff-En:   0.100D+01
 Coeff:      0.100D+01
 Gap=     0.743 Goal=   None    Shift=    0.000
 GapD=    0.743 DampG=2.000 DampE=0.500 DampFc=1.0000 IDamp=-1.
 RMSDP=8.38D-03 MaxDP=5.76D-02              OVMax= 4.58D-02

 Cycle   2  Pass 1  IDiag  1:
 E= -150.682998963423     Delta-E=       -0.030225164864 Rises=F Damp=F
 DIIS: error= 1.37D-02 at cycle   2 NSaved=   2.
 NSaved= 2 IEnMin= 2 EnMin= -150.682998963423     IErMin= 2 ErrMin= 1.37D-02
 ErrMax= 1.37D-02 EMaxC= 1.00D-01 BMatC= 7.90D-03 BMatP= 6.11D-02
 IDIUse=3 WtCom= 8.63D-01 WtEn= 1.37D-01
 Coeff-Com:  0.195D+00 0.805D+00
 Coeff-En:   0.000D+00 0.100D+01
 Coeff:      0.168D+00 0.832D+00
 Gap=     0.706 Goal=   None    Shift=    0.000
 RMSDP=3.35D-03 MaxDP=2.21D-02 DE=-3.02D-02 OVMax= 1.11D-02

 Cycle   3  Pass 1  IDiag  1:
 E= -150.688390819380     Delta-E=       -0.005391855957 Rises=F Damp=F
 DIIS: error= 4.08D-03 at cycle   3 NSaved=   3.
 NSaved= 3 IEnMin= 3 EnMin= -150.688390819380     IErMin= 3 ErrMin= 4.08D-03
 ErrMax= 4.08D-03 EMaxC= 1.00D-01 BMatC= 3.87D-04 BMatP= 7.90D-03
 IDIUse=3 WtCom= 9.59D-01 WtEn= 4.08D-02
 Coeff-Com: -0.294D-01 0.126D+00 0.904D+00
 Coeff-En:   0.000D+00 0.000D+00 0.100D+01
 Coeff:     -0.282D-01 0.121D+00 0.908D+00
 Gap=     0.701 Goal=   None    Shift=    0.000
 RMSDP=7.11D-04 MaxDP=5.39D-03 DE=-5.39D-03 OVMax= 4.77D-03

 Cycle   4  Pass 1  IDiag  1:
 E= -150.688789710842     Delta-E=       -0.000398891462 Rises=F Damp=F
 DIIS: error= 5.27D-04 at cycle   4 NSaved=   4.
 NSaved= 4 IEnMin= 4 EnMin= -150.688789710842     IErMin= 4 ErrMin= 5.27D-04
 ErrMax= 5.27D-04 EMaxC= 1.00D-01 BMatC= 1.21D-05 BMatP= 3.87D-04
 IDIUse=3 WtCom= 9.95D-01 WtEn= 5.27D-03
 Coeff-Com:  0.751D-02-0.729D-01-0.316D+00 0.138D+01
 Coeff-En:   0.000D+00 0.000D+00 0.000D+00 0.100D+01
 Coeff:      0.747D-02-0.725D-01-0.314D+00 0.138D+01
 Gap=     0.699 Goal=   None    Shift=    0.000
 RMSDP=2.77D-04 MaxDP=1.30D-03 DE=-3.99D-04 OVMax= 2.31D-03

 Cycle   5  Pass 1  IDiag  1:
 E= -150.688817861736     Delta-E=       -0.000028150894 Rises=F Damp=F
 DIIS: error= 2.13D-04 at cycle   5 NSaved=   5.
 NSaved= 5 IEnMin= 5 EnMin= -150.688817861736     IErMin= 5 ErrMin= 2.13D-04
 ErrMax= 2.13D-04 EMaxC= 1.00D-01 BMatC= 6.10D-07 BMatP= 1.21D-05
 IDIUse=3 WtCom= 9.98D-01 WtEn= 2.13D-03
 Coeff-Com: -0.318D-02 0.377D-01 0.159D+00-0.814D+00 0.162D+01
 Coeff-En:   0.000D+00 0.000D+00 0.000D+00 0.000D+00 0.100D+01
 Coeff:     -0.317D-02 0.376D-01 0.159D+00-0.812D+00 0.162D+01
 Gap=     0.699 Goal=   None    Shift=    0.000
 RMSDP=9.35D-05 MaxDP=3.83D-04 DE=-2.82D-05 OVMax= 1.24D-03

 Cycle   6  Pass 1  IDiag  1:
 E= -150.688820509563     Delta-E=       -0.000002647828 Rises=F Damp=F
 DIIS: error= 8.21D-05 at cycle   6 NSaved=   6.
 NSaved= 6 IEnMin= 6 EnMin= -150.688820509563     IErMin= 6 ErrMin= 8.21D-05
 ErrMax= 8.21D-05 EMaxC= 1.00D-01 BMatC= 6.74D-08 BMatP= 6.10D-07
 IDIUse=1 WtCom= 1.00D+00 WtEn= 0.00D+00
 Coeff-Com:  0.217D-02-0.266D-01-0.113D+00 0.599D+00-0.143D+01 0.197D+01
 Coeff:      0.217D-02-0.266D-01-0.113D+00 0.599D+00-0.143D+01 0.197D+01
 Gap=     0.699 Goal=   None    Shift=    0.000
 RMSDP=4.76D-05 MaxDP=2.17D-04 DE=-2.65D-06 OVMax= 7.20D-04

 Cycle   7  Pass 1  IDiag  1:
 E= -150.688820953885     Delta-E=       -0.000000444322 Rises=F Damp=F
 DIIS: error= 1.81D-05 at cycle   7 NSaved=   7.
 NSaved= 7 IEnMin= 7 EnMin= -150.688820953885     IErMin= 7 ErrMin= 1.81D-05
 ErrMax= 1.81D-05 EMaxC= 1.00D-01 BMatC= 4.84D-09 BMatP= 6.74D-08
 IDIUse=1 WtCom= 1.00D+00 WtEn= 0.00D+00
 Coeff-Com: -0.841D-03 0.104D-01 0.435D-01-0.233D+00 0.588D+00-0.106D+01
 Coeff-Com:  0.165D+01
 Coeff:     -0.841D-03 0.104D-01 0.435D-01-0.233D+00 0.588D+00-0.106D+01
 Coeff:      0.165D+01
 Gap=     0.699 Goal=   None    Shift=    0.000
 RMSDP=1.42D-05 MaxDP=6.32D-05 DE=-4.44D-07 OVMax= 1.96D-04

 Cycle   8  Pass 1  IDiag  1:
 E= -150.688820982004     Delta-E=       -0.000000028119 Rises=F Damp=F
 DIIS: error= 2.35D-06 at cycle   8 NSaved=   8.
 NSaved= 8 IEnMin= 8 EnMin= -150.688820982004     IErMin= 8 ErrMin= 2.35D-06
 ErrMax= 2.35D-06 EMaxC= 1.00D-01 BMatC= 1.01D-10 BMatP= 4.84D-09
 IDIUse=1 WtCom= 1.00D+00 WtEn= 0.00D+00
 Coeff-Com:  0.250D-03-0.309D-02-0.129D-01 0.696D-01-0.180D+00 0.347D+00
 Coeff-Com: -0.647D+00 0.143D+01
 Coeff:      0.250D-03-0.309D-02-0.129D-01 0.696D-01-0.180D+00 0.347D+00
 Coeff:     -0.647D+00 0.143D+01
 Gap=     0.699 Goal=   None    Shift=    0.000
 RMSDP=1.28D-06 MaxDP=5.62D-06 DE=-2.81D-08 OVMax= 1.15D-05

 Cycle   9  Pass 1  IDiag  1:
 E= -150.688820982390     Delta-E=       -0.000000000386 Rises=F Damp=F
 DIIS: error= 4.66D-07 at cycle   9 NSaved=   9.
 NSaved= 9 IEnMin= 9 EnMin= -150.688820982390     IErMin= 9 ErrMin= 4.66D-07
 ErrMax= 4.66D-07 EMaxC= 1.00D-01 BMatC= 6.26D-12 BMatP= 1.01D-10
 IDIUse=1 WtCom= 1.00D+00 WtEn= 0.00D+00
 Coeff-Com: -0.101D-03 0.125D-02 0.527D-02-0.285D-01 0.752D-01-0.151D+00
 Coeff-Com:  0.305D+00-0.828D+00 0.162D+01
 Coeff:     -0.101D-03 0.125D-02 0.527D-02-0.285D-01 0.752D-01-0.151D+00
 Coeff:      0.305D+00-0.828D+00 0.162D+01
 Gap=     0.699 Goal=   None    Shift=    0.000
 RMSDP=2.82D-07 MaxDP=1.24D-06 DE=-3.86D-10 OVMax= 3.42D-06

 Cycle  10  Pass 1  IDiag  1:
 E= -150.688820982413     Delta-E=       -0.000000000023 Rises=F Damp=F
 DIIS: error= 8.79D-08 at cycle  10 NSaved=  10.
 NSaved=10 IEnMin=10 EnMin= -150.688820982413     IErMin=10 ErrMin= 8.79D-08
 ErrMax= 8.79D-08 EMaxC= 1.00D-01 BMatC= 1.64D-13 BMatP= 6.26D-12
 IDIUse=1 WtCom= 1.00D+00 WtEn= 0.00D+00
 Coeff-Com:  0.391D-05-0.517D-04-0.219D-03 0.125D-02-0.363D-02 0.859D-02
 Coeff-Com: -0.229D-01 0.799D-01-0.291D+00 0.123D+01
 Coeff:      0.391D-05-0.517D-04-0.219D-03 0.125D-02-0.363D-02 0.859D-02
 Coeff:     -0.229D-01 0.799D-01-0.291D+00 0.123D+01
 Gap=     0.699 Goal=   None    Shift=    0.000
 RMSDP=4.82D-08 MaxDP=2.00D-07 DE=-2.29D-11 OVMax= 4.32D-07

 Cycle  11  Pass 1  IDiag  1:
 E= -150.688820982413     Delta-E=        0.000000000000 Rises=F Damp=F
 DIIS: error= 2.60D-08 at cycle  11 NSaved=  11.
 NSaved=11 IEnMin=11 EnMin= -150.688820982413     IErMin=11 ErrMin= 2.60D-08
 ErrMax= 2.60D-08 EMaxC= 1.00D-01 BMatC= 6.93D-15 BMatP= 1.64D-13
 IDIUse=1 WtCom= 1.00D+00 WtEn= 0.00D+00
 Coeff-Com: -0.119D-05 0.161D-04 0.682D-04-0.402D-03 0.120D-02-0.293D-02
 Coeff-Com:  0.819D-02-0.273D-01 0.107D+00-0.589D+00 0.150D+01
 Coeff:     -0.119D-05 0.161D-04 0.682D-04-0.402D-03 0.120D-02-0.293D-02
 Coeff:      0.819D-02-0.273D-01 0.107D+00-0.589D+00 0.150D+01
 Gap=     0.699 Goal=   None    Shift=    0.000
 RMSDP=1.19D-08 MaxDP=4.45D-08 DE=-3.69D-13 OVMax= 1.26D-07

 Cycle  12  Pass 1  IDiag  1:
 E= -150.688820982413     Delta-E=        0.000000000000 Rises=F Damp=F
 DIIS: error= 2.41D-09 at cycle  12 NSaved=  12.
 NSaved=12 IEnMin=12 EnMin= -150.688820982413     IErMin=12 ErrMin= 2.41D-09
 ErrMax= 2.41D-09 EMaxC= 1.00D-01 BMatC= 7.84D-17 BMatP= 6.93D-15
 IDIUse=1 WtCom= 1.00D+00 WtEn= 0.00D+00
 Coeff-Com: -0.863D-07 0.829D-06 0.349D-05-0.134D-04 0.994D-05 0.634D-04
 Coeff-Com: -0.505D-03 0.209D-02-0.119D-01 0.906D-01-0.319D+00 0.124D+01
 Coeff:     -0.863D-07 0.829D-06 0.349D-05-0.134D-04 0.994D-05 0.634D-04
 Coeff:     -0.505D-03 0.209D-02-0.119D-01 0.906D-01-0.319D+00 0.124D+01
 Gap=     0.699 Goal=   None    Shift=    0.000
 RMSDP=1.12D-09 MaxDP=4.42D-09 DE=-3.98D-13 OVMax= 1.12D-08

 SCF Done:  E(RHF) =  -150.688820982     A.U. after   12 cycles
             Convg  =    0.1123D-08             -V/T =  2.0014
 KE= 1.504751345096D+02 PE=-4.298048593418D+02 EE= 9.264259707268D+01
 Leave Link  502 at Sat Feb 16 13:23:17 2019, MaxMem=   33554432 cpu:       0.0
 (Enter D:\G09W\l801.exe)
 Range of M.O.s used for correlation:     1    22
 NBasis=    22 NAE=     9 NBE=     9 NFC=     0 NFV=     0
 NROrb=     22 NOA=     9 NOB=     9 NVA=    13 NVB=    13
 Leave Link  801 at Sat Feb 16 13:23:17 2019, MaxMem=   33554432 cpu:       0.0
 (Enter D:\G09W\l1002.exe)
 Minotr:  Closed shell wavefunction.
          Direct CPHF calculation.
          Differentiating once with respect to electric field.
                with respect to dipole field.
          Electric field/nuclear overlap derivatives assumed to be zero.
          Requested convergence is 1.0D-08 RMS, and 1.0D-07 maximum.
          Secondary convergence is 1.0D-12 RMS, and 1.0D-12 maximum.
          NewPWx=F KeepS1=T KeepF1=T KeepIn=T MapXYZ=F SortEE=F KeepMc=T.
          MDV=      33554404 using IRadAn=       2.
          Keep R1 ints in memory in canonical form, NReq=832387.
 Symmetry not used in FoFDir.
 MinBra= 0 MaxBra= 1 Meth= 1.
 IRaf=       0 NMat=   1 IRICut=       1 DoRegI=T DoRafI=F ISym2E= 0 JSym2E=0.
          Solving linear equations simultaneously, MaxMat=       0.
          There are     3 degrees of freedom in the 1st order CPHF.  IDoFFX=0.
      3 vectors produced by pass  0 Test12= 3.90D-15 3.33D-08 XBig12= 3.94D+00 1.63D+00.
 AX will form     3 AO Fock derivatives at one time.
      3 vectors produced by pass  1 Test12= 3.90D-15 3.33D-08 XBig12= 4.76D-01 3.27D-01.
      3 vectors produced by pass  2 Test12= 3.90D-15 3.33D-08 XBig12= 5.81D-03 2.73D-02.
      3 vectors produced by pass  3 Test12= 3.90D-15 3.33D-08 XBig12= 5.08D-05 4.13D-03.
      3 vectors produced by pass  4 Test12= 3.90D-15 3.33D-08 XBig12= 1.37D-06 5.00D-04.
      3 vectors produced by pass  5 Test12= 3.90D-15 3.33D-08 XBig12= 1.57D-08 4.70D-05.
      3 vectors produced by pass  6 Test12= 3.90D-15 3.33D-08 XBig12= 2.48D-10 8.49D-06.
      3 vectors produced by pass  7 Test12= 3.90D-15 3.33D-08 XBig12= 5.81D-12 9.78D-07.
      3 vectors produced by pass  8 Test12= 3.90D-15 3.33D-08 XBig12= 8.93D-14 1.31D-07.
 Inverted reduced A of dimension    27 with in-core refinement.
 End of Minotr Frequency-dependent properties file   721 does not exist.
 End of Minotr Frequency-dependent properties file   722 does not exist.
 Leave Link 1002 at Sat Feb 16 13:23:17 2019, MaxMem=   33554432 cpu:       0.0
 (Enter D:\G09W\l1101.exe)
 Using compressed storage, NAtomX=     4.
 Will process   5 centers per pass.
 Leave Link 1101 at Sat Feb 16 13:23:17 2019, MaxMem=   33554432 cpu:       0.0
 (Enter D:\G09W\l1102.exe)
 Symmetrizing basis deriv contribution to polar:
 IMax=3 JMax=2 DiffMx= 0.00D+00
 Leave Link 1102 at Sat Feb 16 13:23:17 2019, MaxMem=   33554432 cpu:       0.0
 (Enter D:\G09W\l1110.exe)
 Forming Gx(P) for the SCF density, NAtomX=     4.
 Integral derivatives from FoFDir/FoFCou, PRISM(SPDF).
 Do as many integral derivatives as possible in FoFDir.
 G2DrvN: MDV=      33554354.
 G2DrvN: will do     5 centers at a time, making    1 passes doing MaxLOS=1.
 Calling FoFCou, ICntrl=  3107 FMM=F I1Cent=   0 AccDes= 0.00D+00.
 FoFCou: FMM=F IPFlag=           0 FMFlag=      100000 FMFlg1=           0
         NFxFlg=           0 DoJE=F BraDBF=F KetDBF=F FulRan=T
         Omega=  0.000000  0.000000  1.000000  0.000000  0.000000 ICntrl=    3107 IOpCl=  0
         NMat0=    1 NMatS0=    1 NMatT0=    0 NMatD0=    4 NMtDS0=    3 NMtDT0=    0
         I1Cent=           0 NGrid=           0.
 Symmetry not used in FoFCou.
 FoFDir/FoFCou used for L=0 through L=1.
 End of G2Drv Frequency-dependent properties file   721 does not exist.
 End of G2Drv Frequency-dependent properties file   722 does not exist.
 Leave Link 1110 at Sat Feb 16 13:23:17 2019, MaxMem=   33554432 cpu:       0.0
 (Enter D:\G09W\l1002.exe)
 Minotr:  Closed shell wavefunction.
          IDoAtm=1111
          Direct CPHF calculation.
          Differentiating once with respect to electric field.
                with respect to dipole field.
          Differentiating once with respect to nuclear coordinates.
          Requested convergence is 1.0D-08 RMS, and 1.0D-07 maximum.
          Secondary convergence is 1.0D-12 RMS, and 1.0D-12 maximum.
          NewPWx=T KeepS1=F KeepF1=F KeepIn=T MapXYZ=F SortEE=F KeepMc=T.
          MDV=      33554400 using IRadAn=       2.
          Keep R1 ints in memory in canonical form, NReq=832435.
 Symmetry not used in FoFDir.
 MinBra= 0 MaxBra= 1 Meth= 1.
 IRaf=       0 NMat=   1 IRICut=       1 DoRegI=T DoRafI=F ISym2E= 0 JSym2E=0.
          Solving linear equations simultaneously, MaxMat=       0.
          There are    15 degrees of freedom in the 1st order CPHF.  IDoFFX=5.
 Will reuse    3 saved solutions.
      9 vectors produced by pass  0 Test12= 7.80D-16 6.67D-09 XBig12= 4.26D-02 8.60D-02.
 AX will form     9 AO Fock derivatives at one time.
      9 vectors produced by pass  1 Test12= 7.80D-16 6.67D-09 XBig12= 5.70D-03 2.59D-02.
      9 vectors produced by pass  2 Test12= 7.80D-16 6.67D-09 XBig12= 4.70D-04 8.29D-03.
      9 vectors produced by pass  3 Test12= 7.80D-16 6.67D-09 XBig12= 2.95D-06 5.62D-04.
      9 vectors produced by pass  4 Test12= 7.80D-16 6.67D-09 XBig12= 2.54D-08 5.61D-05.
      9 vectors produced by pass  5 Test12= 7.80D-16 6.67D-09 XBig12= 7.59D-11 3.09D-06.
      6 vectors produced by pass  6 Test12= 7.80D-16 6.67D-09 XBig12= 5.63D-13 2.84D-07.
      1 vectors produced by pass  7 Test12= 7.80D-16 6.67D-09 XBig12= 3.66D-15 2.11D-08.
 Inverted reduced A of dimension    61 with in-core refinement.
 FullF1:  Do perturbations    1 to     3.
 Isotropic polarizability for W=    0.000000       10.28 Bohr**3.
 FullF1:  Do perturbations    1 to     6.
 End of Minotr Frequency-dependent properties file   721 does not exist.
 End of Minotr Frequency-dependent properties file   722 does not exist.
 Leave Link 1002 at Sat Feb 16 13:23:17 2019, MaxMem=   33554432 cpu:       0.0
 (Enter D:\G09W\l601.exe)
 Copying SCF densities to generalized density rwf, IOpCl= 0 IROHF=0.

 **********************************************************************

            Population analysis using the SCF density.

 **********************************************************************

 Alpha  occ. eigenvalues --  -20.65157 -20.65132  -1.48375  -1.22077  -0.70433
 Alpha  occ. eigenvalues --   -0.69713  -0.58353  -0.51566  -0.51421
 Alpha virt. eigenvalues --    0.18458   0.18696   0.26182   1.05035   1.05815
 Alpha virt. eigenvalues --    1.11660   1.13269   1.21858   1.24653   1.32339
 Alpha virt. eigenvalues --    1.32414   1.72752   1.87059
          Condensed to atoms (all electrons):
              1          2          3          4
     1  O    8.209119   0.035611   0.234648  -0.042733
     2  O    0.035611   8.209119  -0.042733   0.234648
     3  H    0.234648  -0.042733   0.370778   0.000663
     4  H   -0.042733   0.234648   0.000663   0.370778
 Mulliken atomic charges:
              1
     1  O   -0.436645
     2  O   -0.436645
     3  H    0.436645
     4  H    0.436645
 Sum of Mulliken atomic charges =   0.00000
 Mulliken charges with hydrogens summed into heavy atoms:
              1
     1  O    0.000000
     2  O    0.000000
 Sum of Mulliken charges with hydrogens summed into heavy atoms =   0.00000
 APT atomic charges:
              1
     1  O   -0.275052
     2  O   -0.275052
     3  H    0.275052
     4  H    0.275052
 Sum of APT charges=   0.00000
 APT Atomic charges with hydrogens summed into heavy atoms:
              1
     1  O    0.000000
     2  O    0.000000
     3  H    0.000000
     4  H    0.000000
 Sum of APT charges=   0.00000
 Electronic spatial extent (au):  <R**2>=            104.2580
 Charge=              0.0000 electrons
 Dipole moment (field-independent basis, Debye):
    X=              2.1927    Y=              2.1927    Z=              0.0000  Tot=              3.1010
 Quadrupole moment (field-independent basis, Debye-Ang):
   XX=            -10.2411   YY=            -10.2411   ZZ=            -12.8772
   XY=             -0.0024   XZ=             -0.0832   YZ=              3.3723
 Traceless Quadrupole moment (field-independent basis, Debye-Ang):
   XX=              0.8787   YY=              0.8787   ZZ=             -1.7574
   XY=             -0.0024   XZ=             -0.0832   YZ=              3.3723
 Octapole moment (field-independent basis, Debye-Ang**2):
  XXX=              0.8614  YYY=              0.8614  ZZZ=            -28.9737  XYY=             -0.3636
  XXY=             -0.3636  XXZ=             -9.5426  XZZ=             -0.2821  YZZ=              4.9012
  YYZ=             -5.8190  XYZ=             -0.0018
 Hexadecapole moment (field-independent basis, Debye-Ang**3):
 XXXX=             -8.6454 YYYY=             -8.6454 ZZZZ=            -90.8621 XXXY=             -0.0034
 XXXZ=              0.0069 YYYX=             -0.0034 YYYZ=              1.2852 ZZZX=              0.1461
 ZZZY=              6.5466 XXYY=             -3.6233 XXZZ=            -17.8508 YYZZ=            -12.2653
 XXYZ=             -0.5330 YYXZ=             -0.0125 ZZXY=             -0.0062
 N-N= 3.599830677711D+01 E-N=-4.298048593413D+02  KE= 1.504751345096D+02
  Exact polarizability:   6.720  -0.189   6.720  -1.491   1.491  17.412
 Approx polarizability:   5.116  -0.004   5.116  -0.181   0.181  12.679
 No NMR shielding tensors so no spin-rotation constants.
 Leave Link  601 at Sat Feb 16 13:23:17 2019, MaxMem=   33554432 cpu:       0.0
 (Enter D:\G09W\l701.exe)
 Compute integral second derivatives.
 ... and contract with generalized density number  0.
 Leave Link  701 at Sat Feb 16 13:23:17 2019, MaxMem=   33554432 cpu:       0.0
 (Enter D:\G09W\l702.exe)
 L702 exits ... SP integral derivatives will be done elsewhere.
 Leave Link  702 at Sat Feb 16 13:23:18 2019, MaxMem=   33554432 cpu:       0.0
 (Enter D:\G09W\l703.exe)
 Compute integral second derivatives, UseDBF=F ICtDFT=           0.
 Integral derivatives from FoFDir, PRISM(SPDF).
 Calling FoFJK, ICntrl=    100127 FMM=F ISym2X=0 I1Cent= 0 IOpClX= 0 NMat=1 NMatS=1 NMatT=0.
 FoFCou: FMM=F IPFlag=           0 FMFlag=      100000 FMFlg1=         800
         NFxFlg=           0 DoJE=F BraDBF=F KetDBF=F FulRan=T
         Omega=  0.000000  0.000000  1.000000  0.000000  0.000000 ICntrl=  100127 IOpCl=  0
         NMat0=    1 NMatS0=    1 NMatT0=    0 NMatD0=    1 NMtDS0=    0 NMtDT0=    0
         I1Cent=           0 NGrid=           0.
 Symmetry not used in FoFCou.
 Leave Link  703 at Sat Feb 16 13:23:18 2019, MaxMem=   33554432 cpu:       0.0
 (Enter D:\G09W\l716.exe)
 Dipole        = 8.62677933D-01 8.62677933D-01 1.71240799D-12
 Polarizability= 6.71954068D+00-1.88613174D-01 6.71954068D+00
                -1.49074026D+00 1.49074026D+00 1.74115030D+01
 HyperPolar    = 3.25229170D+01-1.08682474D+00-1.08682474D+00
                 3.25229170D+01-1.12347552D+01-5.64344867D-13
                 1.12347552D+01 2.77211706D+00 2.77211706D+00
                 5.25534512D-11
 Full mass-weighted force constant matrix:
 Low frequencies --- -105.1922  -96.5232   -0.0009    0.0010    0.0011  780.9506
 Low frequencies ---  914.1817  953.3926 1598.0215
 Harmonic frequencies (cm**-1), IR intensities (KM/Mole), Raman scattering
 activities (A**4/AMU), depolarization ratios for plane and unpolarized
 incident light, reduced masses (AMU), force constants (mDyne/A),
 and normal coordinates:
                     1                      2                      3
                     A                      A                      A
 Frequencies --   911.6879               948.4719              1595.7438
 Red. masses --     1.1879                 6.1452                 1.1204
 Frc consts  --     0.5817                 3.2572                 1.6809
 IR Inten    --   144.4521                20.2741                99.6664
 Raman Activ --    20.0599                40.9154                 5.4970
 Depolar (P) --     0.6548                 0.2961                 0.7500
 Depolar (U) --     0.7914                 0.4569                 0.8571
  Atom  AN      X      Y      Z        X      Y      Z        X      Y      Z
     1   8     0.00   0.05  -0.06     0.01   0.03   0.41    -0.03  -0.03  -0.04
     2   8     0.05   0.00   0.06     0.03   0.01  -0.41     0.03   0.03  -0.04
     3   1    -0.01  -0.70   0.05    -0.04  -0.56  -0.13     0.01   0.00   0.70
     4   1    -0.70  -0.01  -0.05    -0.56  -0.04   0.13     0.00  -0.01   0.70
                     4                      5                      6
                     A                      A                      A
 Frequencies --  1637.6947              3382.7061              3387.6407
 Red. masses --     1.0640                 1.0633                 1.0629
 Frc consts  --     1.6814                 7.1687                 7.1866
 IR Inten    --     0.0025                31.0414                23.1683
 Raman Activ --     6.5334                78.0501               100.6171
 Depolar (P) --     0.7453                 0.7500                 0.1204
 Depolar (U) --     0.8540                 0.8571                 0.2149
  Atom  AN      X      Y      Z        X      Y      Z        X      Y      Z
     1   8     0.03  -0.03  -0.02    -0.04   0.00   0.00     0.04   0.00   0.00
     2   8    -0.03   0.03   0.02     0.00   0.04   0.00     0.00   0.04   0.00
     3   1    -0.01  -0.06  -0.70     0.70   0.00  -0.04    -0.70   0.01   0.04
     4   1    -0.06  -0.01   0.70     0.00  -0.70  -0.04     0.01  -0.70  -0.04

 -------------------
 - Thermochemistry -
 -------------------
 Temperature   298.150 Kelvin.  Pressure   1.00000 Atm.
 Atom     1 has atomic number  8 and mass  15.99491
 Atom     2 has atomic number  8 and mass  15.99491
 Atom     3 has atomic number  1 and mass   1.00783
 Atom     4 has atomic number  1 and mass   1.00783
 Molecular mass:    34.00548 amu.
 Principal axes and moments of inertia in atomic units:
                           1         2         3
     Eigenvalues --     6.76027  71.90663  71.91772
           X           -0.04150   0.70711   0.70589
           Y            0.04150   0.70711  -0.70589
           Z            0.99828   0.00000   0.05869
 This molecule is an asymmetric top.
 Rotational symmetry number  2.
 Rotational temperatures (Kelvin)     12.81218     1.20453     1.20435
 Rotational constants (GHZ):         266.96276    25.09840    25.09453
 Zero-point vibrational energy      70962.1 (Joules/Mol)
                                   16.96036 (Kcal/Mol)
 Vibrational temperatures:   1311.71  1364.64  2295.92  2356.27  4866.95
          (Kelvin)           4874.05
 
 Zero-point correction=                           0.027028 (Hartree/Particle)
 Thermal correction to Energy=                    0.029963
 Thermal correction to Enthalpy=                  0.030907
 Thermal correction to Gibbs Free Energy=         0.005447
 Sum of electronic and zero-point Energies=           -150.661793
 Sum of electronic and thermal Energies=              -150.658858
 Sum of electronic and thermal Enthalpies=            -150.657914
 Sum of electronic and thermal Free Energies=         -150.683374
 
                     E (Thermal)             CV                S
                      KCal/Mol        Cal/Mol-Kelvin    Cal/Mol-Kelvin
 Total                   18.802              6.982             53.586
 Electronic               0.000              0.000              0.000
 Translational            0.889              2.981             36.503
 Rotational               0.889              2.981             16.821
 Vibrational             17.025              1.021              0.263
                       Q            Log10(Q)             Ln(Q)
 Total Bot       0.312305D-02         -2.505422         -5.768946
 Total V=0       0.844490D+10          9.926594         22.856828
 Vib (Bot)       0.378616D-12        -12.421801        -28.602254
 Vib (V=0)       0.102380D+01          0.010215          0.023521
 Electronic      0.100000D+01          0.000000          0.000000
 Translational   0.779433D+07          6.891779         15.868907
 Rotational      0.105828D+04          3.024601          6.964401
 
                                                           HF Hess of H2O2
                                                             IR Spectrum
 
     33                                                                1 1                                                           
     33                                                                6 5                       99                                  
     88                                                                3 9                       41                                  
     83                                                                8 6                       82                                  
 
     XX                                                                  X                       XX                                  
     XX                                                                  X                       XX                                  
     XX                                                                  X                       XX                                  
      X                                                                  X                        X                                  
                                                                         X                        X                                  
                                                                         X                        X                                  
                                                                         X                        X                                  
                                                                         X                        X                                  
                                                                         X                        X                                  
                                                                         X                        X                                  
                                                                         X                        X                                  
                                                                         X                        X                                  
                                                                         X                        X                                  
                                                                         X                        X                                  
                                                                                                  X                                  
                                                                                                  X                                  
                                                                                                  X                                  
                                                                                                  X                                  
                                                                                                  X                                  
                                                                                                  X                                  
 
 
                                                           HF Hess of H2O2
                                                            Raman Spectrum
 
     33                                                                1 1                                                           
     33                                                                6 5                       99                                  
     88                                                                3 9                       41                                  
     83                                                                8 6                       82                                  
 
     XX                                                                X X                       XX                                  
     XX                                                                                          XX                                  
     XX                                                                                          XX                                  
     XX                                                                                          XX                                  
     XX                                                                                          X                                   
     XX                                                                                          X                                   
     XX                                                                                          X                                   
     XX                                                                                          X                                   
     XX                                                                                                                              
     XX                                                                                                                              
     XX                                                                                                                              
     XX                                                                                                                              
     XX                                                                                                                              
     XX                                                                                                                              
     XX                                                                                                                              
     XX                                                                                                                              
     X                                                                                                                               
     X                                                                                                                               
     X                                                                                                                               
     X                                                                                                                               
 
 -------------------------------------------------------------------
 Center     Atomic                   Forces (Hartrees/Bohr)
 Number     Number              X              Y              Z
 -------------------------------------------------------------------
      1        8           0.058621308   -0.013524208    0.017265244
      2        8          -0.013524208    0.058621308   -0.017265244
      3        1          -0.037842958   -0.007254142   -0.031167526
      4        1          -0.007254142   -0.037842958    0.031167526
 -------------------------------------------------------------------
 Cartesian Forces:  Max     0.058621308 RMS     0.032592375
 Z-matrix is all fixed cartesians, so copy forces.
 Force constants in Cartesian coordinates: 
                1             2             3             4             5 
      1  0.433172D+00
      2 -0.495859D-02  0.699831D-01
      3 -0.202089D-01  0.419346D-01  0.320812D+00
      4 -0.347944D-01  0.351631D-02 -0.209766D-02  0.699831D-01
      5  0.242103D-02 -0.347944D-01 -0.450911D-01 -0.495859D-02  0.433172D+00
      6  0.450911D-01  0.209766D-02 -0.230899D+00 -0.419346D-01  0.202089D-01
      7 -0.407669D+00  0.369250D-02  0.223062D-01 -0.191747D-02  0.403679D-03
      8  0.213388D-02 -0.332713D-01  0.000000D+00 -0.225023D-02  0.929057D-02
      9 -0.291193D-01  0.189912D-02 -0.341670D-01  0.459314D-01 -0.423707D-02
     10  0.929057D-02 -0.225023D-02  0.000000D+00 -0.332713D-01  0.213388D-02
     11  0.403678D-03 -0.191747D-02  0.315615D-02  0.369250D-02 -0.407669D+00
     12  0.423707D-02 -0.459314D-01 -0.557458D-01 -0.189912D-02  0.291193D-01
                6             7             8             9            10 
      6  0.320812D+00
      7 -0.315615D-02  0.410356D+00
      8  0.000000D+00 -0.460891D-02  0.247509D-01
      9 -0.557458D-01 -0.205246D-01  0.371256D-02  0.944916D-01
     10  0.000000D+00 -0.770179D-03  0.472527D-02  0.371256D-02  0.247509D-01
     11 -0.223062D-01  0.512729D-03 -0.770179D-03 -0.137460D-02 -0.460891D-02
     12 -0.341670D-01  0.137461D-02 -0.371256D-02 -0.457879D-02 -0.371256D-02
               11            12 
     11  0.410356D+00
     12  0.205246D-01  0.944916D-01
 Leave Link  716 at Sat Feb 16 13:23:18 2019, MaxMem=   33554432 cpu:       0.0
 (Enter D:\G09W\l103.exe)

 GradGradGradGradGradGradGradGradGradGradGradGradGradGradGradGradGradGrad
 Berny optimization.
 Search for a local minimum.
 Step number   1 out of a maximum of    2
 All quantities printed in internal units (Hartrees-Bohrs-Radians)
 Second derivative matrix not updated -- analytic derivatives used.
 The second derivative matrix:
                          X1        Y1        Z1        X2        Y2
           X1           0.43317
           Y1          -0.00496   0.06998
           Z1          -0.02021   0.04193   0.32081
           X2          -0.03479   0.00352  -0.00210   0.06998
           Y2           0.00242  -0.03479  -0.04509  -0.00496   0.43317
           Z2           0.04509   0.00210  -0.23090  -0.04193   0.02021
           X3          -0.40767   0.00369   0.02231  -0.00192   0.00040
           Y3           0.00213  -0.03327   0.00000  -0.00225   0.00929
           Z3          -0.02912   0.00190  -0.03417   0.04593  -0.00424
           X4           0.00929  -0.00225   0.00000  -0.03327   0.00213
           Y4           0.00040  -0.00192   0.00316   0.00369  -0.40767
           Z4           0.00424  -0.04593  -0.05575  -0.00190   0.02912
                          Z2        X3        Y3        Z3        X4
           Z2           0.32081
           X3          -0.00316   0.41036
           Y3           0.00000  -0.00461   0.02475
           Z3          -0.05575  -0.02052   0.00371   0.09449
           X4           0.00000  -0.00077   0.00473   0.00371   0.02475
           Y4          -0.02231   0.00051  -0.00077  -0.00137  -0.00461
           Z4          -0.03417   0.00137  -0.00371  -0.00458  -0.00371
                          Y4        Z4
           Y4           0.41036
           Z4           0.02052   0.09449
 ITU=  0
     Eigenvalues ---    0.05122   0.13271   0.17789   0.53689   0.67460
     Eigenvalues ---    0.69514
 Quadratic step=5.209D-01 exceeds max=3.000D-01 adjusted using Lamda=-7.582D-02.
 Angle between NR and scaled steps=  14.46 degrees.
 Angle between quadratic step and forces=  43.34 degrees.
 Linear search not attempted -- first point.
 TrRot=  0.041631 -0.007322  0.000423 -0.785398 -0.024426  0.785398
 Variable       Old X    -DE/DX   Delta X   Delta X   Delta X     New X
                                 (Linear)    (Quad)   (Total)
    X1        0.00000   0.05862   0.00000   0.05888   0.09975   0.09975
    Y1        0.00000  -0.01352   0.00000  -0.02135  -0.02791  -0.02791
    Z1        0.00000   0.01727   0.00000   0.04309   0.04489   0.04489
    X2        0.00000  -0.01352   0.00000  -0.02135  -0.02791  -0.02791
    Y2        0.00000   0.05862   0.00000   0.05888   0.09975   0.09975
    Z2        2.83459  -0.01727   0.00000  -0.04309  -0.04489   2.78970
    X3        1.88973  -0.03784   0.00000  -0.04460  -0.00009   1.88963
    Y3        0.00000  -0.00725   0.00000  -0.06155  -0.07174  -0.07174
    Z3        0.00000  -0.03117   0.00000  -0.18289  -0.14948  -0.14948
    X4        0.00000  -0.00725   0.00000  -0.06155  -0.07174  -0.07174
    Y4        1.88973  -0.03784   0.00000  -0.04460  -0.00009   1.88963
    Z4        2.83459   0.03117   0.00000   0.18289   0.14948   2.98407
         Item               Value     Threshold  Converged?
 Maximum Force            0.058621     0.000450     NO 
 RMS     Force            0.032592     0.000300     NO 
 Maximum Displacement     0.149485     0.001800     NO 
 RMS     Displacement     0.081891     0.001200     NO 
 Predicted change in Energy=-1.599615D-02
 GradGradGradGradGradGradGradGradGradGradGradGradGradGradGradGradGradGrad

 Leave Link  103 at Sat Feb 16 13:23:18 2019, MaxMem=   33554432 cpu:       0.0
 (Enter D:\G09W\l9999.exe)
 1|1|UNPC-DESKTOP-8BRL880|Freq|RHF|6-31G|H2O2|AJZ34|16-Feb-2019|0||#p H
 F/6-31G nosymm Freq||HF Hess of H2O2||0,1|O,0.,0.,0.|O,0.,0.,1.5|H,1.,
 0.,0.|H,0.,1.,1.5||Version=IA32W-G09RevB.01|HF=-150.688821|RMSD=1.123e
 -009|RMSF=3.259e-002|ZeroPoint=0.0270281|Thermal=0.0299632|Dipole=0.86
 26779,0.8626779,0.|DipoleDeriv=-0.1466289,0.0065049,0.1591764,0.028614
 1,-0.4412062,0.1461258,-0.0084081,-0.0283743,-0.2373208,-0.4412062,0.0
 286141,-0.1461258,0.0065049,-0.1466289,-0.1591764,0.0283743,0.0084081,
 -0.2373208,0.1613307,-0.005114,-0.0130506,-0.0300051,0.4265044,0.,-0.0
 220526,-0.0020863,0.2373208,0.4265044,-0.0300051,0.,-0.005114,0.161330
 7,0.0130506,0.0020863,0.0220526,0.2373208|Polar=6.7195407,-0.1886132,6
 .7195407,-1.4907403,1.4907403,17.411503|PolarDeriv=-7.657155,-0.152774
 2,0.2084335,-1.9513356,-0.2348288,-2.0292272,-0.1605156,-1.7188559,-0.
 9587297,0.0649668,-4.166597,0.8331435,-0.3699318,0.0255403,-0.2889514,
 -0.2738935,-1.3040981,-19.1373355,-0.9587297,-1.7188559,-0.1605156,4.1
 66597,-0.0649668,0.8331435,0.2084336,-0.1527742,-7.6571549,0.2348287,1
 .9513357,-2.0292272,0.2889514,-0.0255403,0.3699317,-1.3040981,-0.27389
 35,19.1373355,8.6398794,-0.3925553,-0.2235431,-2.8913479,0.187016,1.22
 86783,0.1756251,2.2641855,-0.0239947,-0.1127795,-0.6760866,-0.0325946,
 0.1036445,0.0291282,0.0226642,1.6060823,-0.0280907,-0.3769081,-0.02399
 47,2.2641855,0.1756251,0.6760866,0.1127795,-0.0325946,-0.2235431,-0.39
 25553,8.6398793,-0.187016,2.8913479,1.2286783,-0.0226642,-0.0291282,-0
 .1036445,-0.0280907,1.6060823,0.3769081|HyperPolar=32.522917,-1.086824
 7,-1.0868247,32.522917,-11.2347552,0.,11.2347552,2.7721171,2.7721171,0
 .|PG=C02 [X(H2O2)]|NImag=0||0.43317244,-0.00495859,0.06998313,-0.02020
 888,0.04193461,0.32081191,-0.03479437,0.00351631,-0.00209766,0.0699831
 3,0.00242103,-0.03479437,-0.04509113,-0.00495859,0.43317243,0.04509113
 ,0.00209766,-0.23089915,-0.04193461,0.02020888,0.32081191,-0.40766864,
 0.00369250,0.02230617,-0.00191747,0.00040368,-0.00315615,0.41035629,0.
 00213388,-0.03327129,0.00000037,-0.00225023,0.00929057,-0.00000037,-0.
 00460891,0.02475090,-0.02911932,0.00189912,-0.03416700,0.04593139,-0.0
 0423707,-0.05574577,-0.02052463,0.00371256,0.09449155,0.00929057,-0.00
 225023,0.00000037,-0.03327129,0.00213388,-0.00000037,-0.00077018,0.004
 72527,0.00371256,0.02475090,0.00040368,-0.00191747,0.00315615,0.003692
 50,-0.40766864,-0.02230617,0.00051273,-0.00077018,-0.00137460,-0.00460
 891,0.41035629,0.00423707,-0.04593139,-0.05574577,-0.00189912,0.029119
 32,-0.03416700,0.00137461,-0.00371256,-0.00457879,-0.00371256,0.020524
 63,0.09449155||-0.05862131,0.01352421,-0.01726524,0.01352421,-0.058621
 31,0.01726524,0.03784296,0.00725414,0.03116753,0.00725414,0.03784296,-
 0.03116753|||@


 WHEN ALL ELSE FAILS, TRY THE BOSS'S SUGGESTION.
 Job cpu time:  0 days  0 hours  0 minutes  2.0 seconds.
 File lengths (MBytes):  RWF=      5 Int=      0 D2E=      0 Chk=      1 Scr=      1
 Normal termination of Gaussian 09 at Sat Feb 16 13:23:18 2019.
