 Entering Link 1 = D:\G09W\l1.exe PID=     14312.
  
 Copyright (c) 1988,1990,1992,1993,1995,1998,2003,2009,2010,
            Gaussian, Inc.  All Rights Reserved.
  
 This is part of the Gaussian(R) 09 program.  It is based on
 the Gaussian(R) 03 system (copyright 2003, Gaussian, Inc.),
 the Gaussian(R) 98 system (copyright 1998, Gaussian, Inc.),
 the Gaussian(R) 94 system (copyright 1995, Gaussian, Inc.),
 the Gaussian 92(TM) system (copyright 1992, Gaussian, Inc.),
 the Gaussian 90(TM) system (copyright 1990, Gaussian, Inc.),
 the Gaussian 88(TM) system (copyright 1988, Gaussian, Inc.),
 the Gaussian 86(TM) system (copyright 1986, Carnegie Mellon
 University), and the Gaussian 82(TM) system (copyright 1983,
 Carnegie Mellon University). Gaussian is a federally registered
 trademark of Gaussian, Inc.
  
 This software contains proprietary and confidential information,
 including trade secrets, belonging to Gaussian, Inc.
  
 This software is provided under written license and may be
 used, copied, transmitted, or stored only in accord with that
 written license.
  
 The following legend is applicable only to US Government
 contracts under FAR:
  
                    RESTRICTED RIGHTS LEGEND
  
 Use, reproduction and disclosure by the US Government is
 subject to restrictions as set forth in subparagraphs (a)
 and (c) of the Commercial Computer Software - Restricted
 Rights clause in FAR 52.227-19.
  
 Gaussian, Inc.
 340 Quinnipiac St., Bldg. 40, Wallingford CT 06492
  
  
 ---------------------------------------------------------------
 Warning -- This program may not be used in any manner that
 competes with the business of Gaussian, Inc. or will provide
 assistance to any competitor of Gaussian, Inc.  The licensee
 of this program is prohibited from giving any competitor of
 Gaussian, Inc. access to this program.  By using this program,
 the user acknowledges that Gaussian, Inc. is engaged in the
 business of creating and licensing software in the field of
 computational chemistry and represents and warrants to the
 licensee that it is not a competitor of Gaussian, Inc. and that
 it will not use this program in any manner prohibited above.
 ---------------------------------------------------------------
  

 Cite this work as:
 Gaussian 09, Revision B.01,
 M. J. Frisch, G. W. Trucks, H. B. Schlegel, G. E. Scuseria, 
 M. A. Robb, J. R. Cheeseman, G. Scalmani, V. Barone, B. Mennucci, 
 G. A. Petersson, H. Nakatsuji, M. Caricato, X. Li, H. P. Hratchian, 
 A. F. Izmaylov, J. Bloino, G. Zheng, J. L. Sonnenberg, M. Hada, 
 M. Ehara, K. Toyota, R. Fukuda, J. Hasegawa, M. Ishida, T. Nakajima, 
 Y. Honda, O. Kitao, H. Nakai, T. Vreven, J. A. Montgomery, Jr., 
 J. E. Peralta, F. Ogliaro, M. Bearpark, J. J. Heyd, E. Brothers, 
 K. N. Kudin, V. N. Staroverov, T. Keith, R. Kobayashi, J. Normand, 
 K. Raghavachari, A. Rendell, J. C. Burant, S. S. Iyengar, J. Tomasi, 
 M. Cossi, N. Rega, J. M. Millam, M. Klene, J. E. Knox, J. B. Cross, 
 V. Bakken, C. Adamo, J. Jaramillo, R. Gomperts, R. E. Stratmann, 
 O. Yazyev, A. J. Austin, R. Cammi, C. Pomelli, J. W. Ochterski, 
 R. L. Martin, K. Morokuma, V. G. Zakrzewski, G. A. Voth, 
 P. Salvador, J. J. Dannenberg, S. Dapprich, A. D. Daniels, 
 O. Farkas, J. B. Foresman, J. V. Ortiz, J. Cioslowski, 
 and D. J. Fox, Gaussian, Inc., Wallingford CT, 2010.
 
 ******************************************
 Gaussian 09:  IA32W-G09RevB.01 12-Aug-2010
                15-Feb-2019 
 ******************************************
 ---------------------------------
 #p HF/6-31G nosymm opt(VeryTight)
 ---------------------------------
 1/7=1,18=20,19=15,38=1/1,3;
 2/9=110,12=2,15=1,17=6,18=5,40=1/2;
 3/5=1,6=6,11=9,16=1,25=1,30=1,71=1/1,2,3;
 4//1;
 5/5=2,38=5/2;
 6/7=2,8=2,9=2,10=2,28=1/1;
 7/30=1/1,2,3,16;
 1/7=1,18=20,19=15/3(2);
 2/9=110,15=1/2;
 99//99;
 2/9=110,15=1/2;
 3/5=1,6=6,11=9,16=1,25=1,30=1,71=1/1,2,3;
 4/5=5,16=3/1;
 5/5=2,38=5/2;
 7/30=1/1,2,3,16;
 1/7=1,18=20,19=15/3(-5);
 2/9=110,15=1/2;
 6/7=2,8=2,9=2,10=2,19=2,28=1/1;
 99/9=1/99;
 Leave Link    1 at Fri Feb 15 10:54:27 2019, MaxMem=          0 cpu:       0.0
 (Enter D:\G09W\l101.exe)
 --------------
 HF Grad of H2O
 --------------
 Symbolic Z-matrix:
 Charge =  0 Multiplicity = 1
 O                     1.        0.        0. 
 H                     1.        1.        0. 
 H                     1.        0.        1. 
 
 NAtoms=      3 NQM=      3 NQMF=      0 NMic=      0 NMicF=      0 NTot=      3.
                    Isotopes and Nuclear Properties:
 (Nuclear quadrupole moments (NQMom) in fm**2, nuclear magnetic moments (NMagM)
  in nuclear magnetons)

  Atom         1           2           3
 IAtWgt=          16           1           1
 AtmWgt=  15.9949146   1.0078250   1.0078250
 NucSpn=           0           1           1
 AtZEff=   0.0000000   0.0000000   0.0000000
 NQMom=    0.0000000   0.0000000   0.0000000
 NMagM=    0.0000000   2.7928460   2.7928460
 Leave Link  101 at Fri Feb 15 10:54:27 2019, MaxMem=   33554432 cpu:       0.0
 (Enter D:\G09W\l103.exe)

 GradGradGradGradGradGradGradGradGradGradGradGradGradGradGradGradGradGrad
 Berny optimization.
 Initialization pass.
                           ----------------------------
                           !    Initial Parameters    !
                           ! (Angstroms and Degrees)  !
 --------------------------                            --------------------------
 ! Name  Definition              Value          Derivative Info.                !
 --------------------------------------------------------------------------------
 ! R1    R(1,2)                  1.0            estimate D2E/DX2                !
 ! R2    R(1,3)                  1.0            estimate D2E/DX2                !
 ! A1    A(2,1,3)               90.0            estimate D2E/DX2                !
 --------------------------------------------------------------------------------
 Trust Radius=3.00D-01 FncErr=1.00D-07 GrdErr=1.00D-07
 Number of steps in this run=     20 maximum allowed number of steps=    100.
 GradGradGradGradGradGradGradGradGradGradGradGradGradGradGradGradGradGrad

 Leave Link  103 at Fri Feb 15 10:54:27 2019, MaxMem=   33554432 cpu:       0.0
 (Enter D:\G09W\l202.exe)
                          Input orientation:                          
 ---------------------------------------------------------------------
 Center     Atomic      Atomic             Coordinates (Angstroms)
 Number     Number       Type             X           Y           Z
 ---------------------------------------------------------------------
      1          8           0        1.000000    0.000000    0.000000
      2          1           0        1.000000    1.000000    0.000000
      3          1           0        1.000000    0.000000    1.000000
 ---------------------------------------------------------------------
                    Distance matrix (angstroms):
                    1          2          3
     1  O    0.000000
     2  H    1.000000   0.000000
     3  H    1.000000   1.414214   0.000000
 Symmetry turned off by external request.
 Stoichiometry    H2O
 Framework group  C2V[C2(O),SGV(H2)]
 Deg. of freedom     2
 Full point group                 C2V     NOp   4
 Rotational constants (GHZ):    564.6475607    501.4551003    265.5892435
 Leave Link  202 at Fri Feb 15 10:54:27 2019, MaxMem=   33554432 cpu:       0.0
 (Enter D:\G09W\l301.exe)
 Standard basis: 6-31G (6D, 7F)
 Ernie: Thresh=  0.10000D-02 Tol=  0.10000D-05 Strict=F.
 Integral buffers will be    262144 words long.
 Raffenetti 1 integral format.
 Two-electron integral symmetry is turned off.
    13 basis functions,    30 primitive gaussians,    13 cartesian basis functions
     5 alpha electrons        5 beta electrons
       nuclear repulsion energy         8.8410201301 Hartrees.
 IExCor=    0 DFT=F Ex=HF Corr=None ExCW=0 ScaHFX=  1.000000
 ScaDFX=  1.000000  1.000000  1.000000  1.000000 ScalE2=  1.000000  1.000000
 IRadAn=      0 IRanWt=     -1 IRanGd=            0 ICorTp=0
 NAtoms=    3 NActive=    3 NUniq=    3 SFac= 1.00D+00 NAtFMM=   50 NAOKFM=F Big=F
 Leave Link  301 at Fri Feb 15 10:54:27 2019, MaxMem=   33554432 cpu:       0.0
 (Enter D:\G09W\l302.exe)
 NPDir=0 NMtPBC=     1 NCelOv=     1 NCel=       1 NClECP=     1 NCelD=      1
         NCelK=      1 NCelE2=     1 NClLst=     1 CellRange=     0.0.
 One-electron integrals computed using PRISM.
 NBasis=    13 RedAO= T  NBF=    13
 NBsUse=    13 1.00D-06 NBFU=    13
 Leave Link  302 at Fri Feb 15 10:54:27 2019, MaxMem=   33554432 cpu:       0.0
 (Enter D:\G09W\l303.exe)
 DipDrv:  MaxL=1.
 Leave Link  303 at Fri Feb 15 10:54:28 2019, MaxMem=   33554432 cpu:       0.0
 (Enter D:\G09W\l401.exe)
 Harris functional with IExCor=  205 diagonalized for initial guess.
 ExpMin= 1.61D-01 ExpMax= 5.48D+03 ExpMxC= 8.25D+02 IAcc=1 IRadAn=         1 AccDes= 0.00D+00
 HarFok:  IExCor=  205 AccDes= 0.00D+00 IRadAn=         1 IDoV= 1
 ScaDFX=  1.000000  1.000000  1.000000  1.000000
 FoFCou: FMM=F IPFlag=           0 FMFlag=      100000 FMFlg1=           0
         NFxFlg=           0 DoJE=T BraDBF=F KetDBF=T FulRan=T
         Omega=  0.000000  0.000000  1.000000  0.000000  0.000000 ICntrl=     500 IOpCl=  0
         NMat0=    1 NMatS0=    1 NMatT0=    0 NMatD0=    1 NMtDS0=    0 NMtDT0=    0
         I1Cent=           4 NGrid=           0.
 Symmetry not used in FoFCou.
 Harris En= -76.0713285260978    
 Leave Link  401 at Fri Feb 15 10:54:28 2019, MaxMem=   33554432 cpu:       0.0
 (Enter D:\G09W\l502.exe)
 Closed shell SCF:
 Requested convergence on RMS density matrix=1.00D-08 within 128 cycles.
 Requested convergence on MAX density matrix=1.00D-06.
 Requested convergence on             energy=1.00D-06.
 No special actions if energy rises.
 Using DIIS extrapolation, IDIIS=  1040.
 Two-electron integral symmetry not used.
 Keep R1 ints in memory in canonical form, NReq=823903.
 IEnd=       19703 IEndB=       19703 NGot=    33554432 MDV=    33547618
 LenX=    33547618 LenY=    33546736
 Symmetry not used in FoFDir.
 MinBra= 0 MaxBra= 1 Meth= 1.
 IRaf=       0 NMat=   1 IRICut=       1 DoRegI=T DoRafI=F ISym2E= 0 JSym2E=0.

 Cycle   1  Pass 1  IDiag  1:
 E= -75.8940288475861    
 DIIS: error= 8.89D-02 at cycle   1 NSaved=   1.
 NSaved= 1 IEnMin= 1 EnMin= -75.8940288475861     IErMin= 1 ErrMin= 8.89D-02
 ErrMax= 8.89D-02 EMaxC= 1.00D-01 BMatC= 1.01D-01 BMatP= 1.01D-01
 IDIUse=3 WtCom= 1.11D-01 WtEn= 8.89D-01
 Coeff-Com:  0.100D+01
 Coeff-En:   0.100D+01
 Coeff:      0.100D+01
 Gap=     0.571 Goal=   None    Shift=    0.000
 GapD=    0.571 DampG=2.000 DampE=0.500 DampFc=1.0000 IDamp=-1.
 RMSDP=2.28D-02 MaxDP=1.16D-01              OVMax= 1.28D-01

 Cycle   2  Pass 1  IDiag  1:
 E= -75.9421519889830     Delta-E=       -0.048123141397 Rises=F Damp=F
 DIIS: error= 5.32D-02 at cycle   2 NSaved=   2.
 NSaved= 2 IEnMin= 2 EnMin= -75.9421519889830     IErMin= 2 ErrMin= 5.32D-02
 ErrMax= 5.32D-02 EMaxC= 1.00D-01 BMatC= 3.94D-02 BMatP= 1.01D-01
 IDIUse=3 WtCom= 4.68D-01 WtEn= 5.32D-01
 Coeff-Com:  0.375D+00 0.625D+00
 Coeff-En:   0.147D+00 0.853D+00
 Coeff:      0.253D+00 0.747D+00
 Gap=     0.710 Goal=   None    Shift=    0.000
 RMSDP=1.16D-02 MaxDP=6.51D-02 DE=-4.81D-02 OVMax= 4.19D-02

 Cycle   3  Pass 1  IDiag  1:
 E= -75.9682777883345     Delta-E=       -0.026125799351 Rises=F Damp=F
 DIIS: error= 1.24D-02 at cycle   3 NSaved=   3.
 NSaved= 3 IEnMin= 3 EnMin= -75.9682777883345     IErMin= 3 ErrMin= 1.24D-02
 ErrMax= 1.24D-02 EMaxC= 1.00D-01 BMatC= 1.73D-03 BMatP= 3.94D-02
 IDIUse=3 WtCom= 8.76D-01 WtEn= 1.24D-01
 Coeff-Com: -0.392D-01 0.131D+00 0.908D+00
 Coeff-En:   0.000D+00 0.000D+00 0.100D+01
 Coeff:     -0.343D-01 0.114D+00 0.920D+00
 Gap=     0.690 Goal=   None    Shift=    0.000
 RMSDP=2.12D-03 MaxDP=1.16D-02 DE=-2.61D-02 OVMax= 1.23D-02

 Cycle   4  Pass 1  IDiag  1:
 E= -75.9696741637806     Delta-E=       -0.001396375446 Rises=F Damp=F
 DIIS: error= 1.87D-03 at cycle   4 NSaved=   4.
 NSaved= 4 IEnMin= 4 EnMin= -75.9696741637806     IErMin= 4 ErrMin= 1.87D-03
 ErrMax= 1.87D-03 EMaxC= 1.00D-01 BMatC= 2.63D-05 BMatP= 1.73D-03
 IDIUse=3 WtCom= 9.81D-01 WtEn= 1.87D-02
 Coeff-Com:  0.915D-02-0.759D-01-0.286D+00 0.135D+01
 Coeff-En:   0.000D+00 0.000D+00 0.000D+00 0.100D+01
 Coeff:      0.898D-02-0.745D-01-0.281D+00 0.135D+01
 Gap=     0.695 Goal=   None    Shift=    0.000
 RMSDP=3.81D-04 MaxDP=2.73D-03 DE=-1.40D-03 OVMax= 9.25D-04

 Cycle   5  Pass 1  IDiag  1:
 E= -75.9697006398828     Delta-E=       -0.000026476102 Rises=F Damp=F
 DIIS: error= 1.55D-04 at cycle   5 NSaved=   5.
 NSaved= 5 IEnMin= 5 EnMin= -75.9697006398828     IErMin= 5 ErrMin= 1.55D-04
 ErrMax= 1.55D-04 EMaxC= 1.00D-01 BMatC= 1.39D-07 BMatP= 2.63D-05
 IDIUse=3 WtCom= 9.98D-01 WtEn= 1.55D-03
 Coeff-Com: -0.200D-02 0.213D-01 0.717D-01-0.451D+00 0.136D+01
 Coeff-En:   0.000D+00 0.000D+00 0.000D+00 0.000D+00 0.100D+01
 Coeff:     -0.199D-02 0.213D-01 0.716D-01-0.451D+00 0.136D+01
 Gap=     0.695 Goal=   None    Shift=    0.000
 RMSDP=5.75D-05 MaxDP=3.50D-04 DE=-2.65D-05 OVMax= 2.76D-04

 Cycle   6  Pass 1  IDiag  1:
 E= -75.9697009518458     Delta-E=       -0.000000311963 Rises=F Damp=F
 DIIS: error= 1.06D-05 at cycle   6 NSaved=   6.
 NSaved= 6 IEnMin= 6 EnMin= -75.9697009518458     IErMin= 6 ErrMin= 1.06D-05
 ErrMax= 1.06D-05 EMaxC= 1.00D-01 BMatC= 1.63D-09 BMatP= 1.39D-07
 IDIUse=1 WtCom= 1.00D+00 WtEn= 0.00D+00
 Coeff-Com:  0.469D-03-0.536D-02-0.176D-01 0.121D+00-0.407D+00 0.131D+01
 Coeff:      0.469D-03-0.536D-02-0.176D-01 0.121D+00-0.407D+00 0.131D+01
 Gap=     0.695 Goal=   None    Shift=    0.000
 RMSDP=5.67D-06 MaxDP=3.15D-05 DE=-3.12D-07 OVMax= 2.65D-05

 Cycle   7  Pass 1  IDiag  1:
 E= -75.9697009552260     Delta-E=       -0.000000003380 Rises=F Damp=F
 DIIS: error= 3.08D-06 at cycle   7 NSaved=   7.
 NSaved= 7 IEnMin= 7 EnMin= -75.9697009552260     IErMin= 7 ErrMin= 3.08D-06
 ErrMax= 3.08D-06 EMaxC= 1.00D-01 BMatC= 1.01D-10 BMatP= 1.63D-09
 IDIUse=1 WtCom= 1.00D+00 WtEn= 0.00D+00
 Coeff-Com: -0.924D-04 0.120D-02 0.382D-02-0.302D-01 0.113D+00-0.545D+00
 Coeff-Com:  0.146D+01
 Coeff:     -0.924D-04 0.120D-02 0.382D-02-0.302D-01 0.113D+00-0.545D+00
 Coeff:      0.146D+01
 Gap=     0.695 Goal=   None    Shift=    0.000
 RMSDP=1.52D-06 MaxDP=6.66D-06 DE=-3.38D-09 OVMax= 9.69D-06

 Cycle   8  Pass 1  IDiag  1:
 E= -75.9697009555052     Delta-E=       -0.000000000279 Rises=F Damp=F
 DIIS: error= 4.66D-07 at cycle   8 NSaved=   8.
 NSaved= 8 IEnMin= 8 EnMin= -75.9697009555052     IErMin= 8 ErrMin= 4.66D-07
 ErrMax= 4.66D-07 EMaxC= 1.00D-01 BMatC= 3.02D-12 BMatP= 1.01D-10
 IDIUse=1 WtCom= 1.00D+00 WtEn= 0.00D+00
 Coeff-Com: -0.610D-05 0.115D-04 0.100D-03 0.797D-03-0.600D-02 0.678D-01
 Coeff-Com: -0.359D+00 0.130D+01
 Coeff:     -0.610D-05 0.115D-04 0.100D-03 0.797D-03-0.600D-02 0.678D-01
 Coeff:     -0.359D+00 0.130D+01
 Gap=     0.695 Goal=   None    Shift=    0.000
 RMSDP=3.22D-07 MaxDP=1.23D-06 DE=-2.79D-10 OVMax= 2.09D-06

 Cycle   9  Pass 1  IDiag  1:
 E= -75.9697009555145     Delta-E=       -0.000000000009 Rises=F Damp=F
 DIIS: error= 7.13D-08 at cycle   9 NSaved=   9.
 NSaved= 9 IEnMin= 9 EnMin= -75.9697009555145     IErMin= 9 ErrMin= 7.13D-08
 ErrMax= 7.13D-08 EMaxC= 1.00D-01 BMatC= 5.74D-14 BMatP= 3.02D-12
 IDIUse=1 WtCom= 1.00D+00 WtEn= 0.00D+00
 Coeff-Com:  0.139D-05-0.187D-05-0.196D-04-0.214D-03 0.137D-02-0.136D-01
 Coeff-Com:  0.769D-01-0.383D+00 0.132D+01
 Coeff:      0.139D-05-0.187D-05-0.196D-04-0.214D-03 0.137D-02-0.136D-01
 Coeff:      0.769D-01-0.383D+00 0.132D+01
 Gap=     0.695 Goal=   None    Shift=    0.000
 RMSDP=5.23D-08 MaxDP=1.53D-07 DE=-9.28D-12 OVMax= 3.56D-07

 Cycle  10  Pass 1  IDiag  1:
 E= -75.9697009555147     Delta-E=        0.000000000000 Rises=F Damp=F
 DIIS: error= 2.59D-09 at cycle  10 NSaved=  10.
 NSaved=10 IEnMin=10 EnMin= -75.9697009555147     IErMin=10 ErrMin= 2.59D-09
 ErrMax= 2.59D-09 EMaxC= 1.00D-01 BMatC= 1.23D-16 BMatP= 5.74D-14
 IDIUse=1 WtCom= 1.00D+00 WtEn= 0.00D+00
 Coeff-Com: -0.186D-06 0.650D-06 0.355D-05 0.110D-04-0.960D-04 0.114D-02
 Coeff-Com: -0.777D-02 0.433D-01-0.184D+00 0.115D+01
 Coeff:     -0.186D-06 0.650D-06 0.355D-05 0.110D-04-0.960D-04 0.114D-02
 Coeff:     -0.777D-02 0.433D-01-0.184D+00 0.115D+01
 Gap=     0.695 Goal=   None    Shift=    0.000
 RMSDP=2.60D-09 MaxDP=8.08D-09 DE=-1.85D-13 OVMax= 1.49D-08

 SCF Done:  E(RHF) =  -75.9697009555     A.U. after   10 cycles
             Convg  =    0.2602D-08             -V/T =  2.0014
 KE= 7.586210654249D+01 PE=-1.981230386479D+02 EE= 3.745021101985D+01
 Leave Link  502 at Fri Feb 15 10:54:28 2019, MaxMem=   33554432 cpu:       0.0
 (Enter D:\G09W\l601.exe)
 Copying SCF densities to generalized density rwf, IOpCl= 0 IROHF=0.

 **********************************************************************

            Population analysis using the SCF density.

 **********************************************************************

 Alpha  occ. eigenvalues --  -20.57924  -1.35063  -0.66123  -0.58261  -0.50654
 Alpha virt. eigenvalues --    0.18877   0.28308   0.98260   1.15879   1.16241
 Alpha virt. eigenvalues --    1.24824   1.35324   1.74498
          Condensed to atoms (all electrons):
              1          2          3
     1  O    8.269681   0.243167   0.243167
     2  H    0.243167   0.419974  -0.041148
     3  H    0.243167  -0.041148   0.419974
 Mulliken atomic charges:
              1
     1  O   -0.756015
     2  H    0.378007
     3  H    0.378007
 Sum of Mulliken atomic charges =   0.00000
 Mulliken charges with hydrogens summed into heavy atoms:
              1
     1  O    0.000000
 Sum of Mulliken charges with hydrogens summed into heavy atoms =   0.00000
 Electronic spatial extent (au):  <R**2>=             55.6000
 Charge=              0.0000 electrons
 Dipole moment (field-independent basis, Debye):
    X=              0.0000    Y=              2.0267    Z=              2.0267  Tot=              2.8661
 Quadrupole moment (field-independent basis, Debye-Ang):
   XX=             -7.2938   YY=             -4.9258   ZZ=             -4.9258
   XY=              2.0267   XZ=              2.0267   YZ=             -0.0523
 Traceless Quadrupole moment (field-independent basis, Debye-Ang):
   XX=             -1.5786   YY=              0.7893   ZZ=              0.7893
   XY=              2.0267   XZ=              2.0267   YZ=             -0.0523
 Octapole moment (field-independent basis, Debye-Ang**2):
  XXX=            -21.8813  YYY=              0.4488  ZZZ=              0.4488  XYY=             -4.9258
  XXY=              1.6145  XXZ=              1.6145  XZZ=             -4.9258  YZZ=             -0.3606
  YYZ=             -0.3606  XYZ=             -0.0523
 Hexadecapole moment (field-independent basis, Debye-Ang**3):
 XXXX=            -49.0374 YYYY=             -5.4375 ZZZZ=             -5.4375 XXXY=              0.7902
 XXXZ=              0.7902 YYYX=              0.4488 YYYZ=              0.0191 ZZZX=              0.4488
 ZZZY=              0.0191 XXYY=             -7.0404 XXZZ=             -7.0404 YYZZ=             -2.4551
 XXYZ=             -0.0553 YYXZ=             -0.3606 ZZXY=             -0.3606
 N-N= 8.841020130083D+00 E-N=-1.981230386718D+02  KE= 7.586210654249D+01
 No NMR shielding tensors so no spin-rotation constants.
 Leave Link  601 at Fri Feb 15 10:54:28 2019, MaxMem=   33554432 cpu:       0.0
 (Enter D:\G09W\l701.exe)
 Compute integral first derivatives.
 ... and contract with generalized density number  0.
 Leave Link  701 at Fri Feb 15 10:54:28 2019, MaxMem=   33554432 cpu:       0.0
 (Enter D:\G09W\l702.exe)
 L702 exits ... SP integral derivatives will be done elsewhere.
 Leave Link  702 at Fri Feb 15 10:54:28 2019, MaxMem=   33554432 cpu:       0.0
 (Enter D:\G09W\l703.exe)
 Compute integral first derivatives, UseDBF=F ICtDFT=           0.
 Integral derivatives from FoFDir, PRISM(SPDF).
 Calling FoFJK, ICntrl=      2127 FMM=F ISym2X=0 I1Cent= 0 IOpClX= 0 NMat=1 NMatS=1 NMatT=0.
 FoFCou: FMM=F IPFlag=           0 FMFlag=      100000 FMFlg1=         800
         NFxFlg=           0 DoJE=F BraDBF=F KetDBF=F FulRan=T
         Omega=  0.000000  0.000000  1.000000  0.000000  0.000000 ICntrl=    2127 IOpCl=  0
         NMat0=    1 NMatS0=    1 NMatT0=    0 NMatD0=    1 NMtDS0=    0 NMtDT0=    0
         I1Cent=           0 NGrid=           0.
 Symmetry not used in FoFCou.
 Leave Link  703 at Fri Feb 15 10:54:28 2019, MaxMem=   33554432 cpu:       0.0
 (Enter D:\G09W\l716.exe)
 Dipole        = 4.88498131D-15 7.97350660D-01 7.97350660D-01
 -------------------------------------------------------------------
 Center     Atomic                   Forces (Hartrees/Bohr)
 Number     Number              X              Y              Z
 -------------------------------------------------------------------
      1        8           0.000000000    0.067224255    0.067224255
      2        1           0.000000000   -0.031018035   -0.036206220
      3        1           0.000000000   -0.036206220   -0.031018035
 -------------------------------------------------------------------
 Cartesian Forces:  Max     0.067224255 RMS     0.038850452
 Leave Link  716 at Fri Feb 15 10:54:28 2019, MaxMem=   33554432 cpu:       0.0
 (Enter D:\G09W\l103.exe)

 GradGradGradGradGradGradGradGradGradGradGradGradGradGradGradGradGradGrad
 Berny optimization.
 Internal  Forces:  Max     0.068419840 RMS     0.046923738
 Search for a local minimum.
 Step number   1 out of a maximum of   20
 All quantities printed in internal units (Hartrees-Bohrs-Radians)
 RMS Force = .46924D-01 SwitMx=.10000D-02 MixMth= 1
 Mixed Optimization -- RFO/linear search
 Second derivative matrix not updated -- first step.
 The second derivative matrix:
                          R1        R2        A1
           R1           0.47688
           R2           0.00000   0.47688
           A1           0.00000   0.00000   0.16000
 ITU=  0
     Eigenvalues ---    0.16000   0.47688   0.47688
 RFO step:  Lambda=-2.86244940D-02 EMin= 1.60000000D-01
 Linear search not attempted -- first point.
 Maximum step size (   0.300) exceeded in Quadratic search.
    -- Step size scaled by   0.804
 Iteration  1 RMS(Cart)=  0.11271600 RMS(Int)=  0.05141475
 Iteration  2 RMS(Cart)=  0.04838330 RMS(Int)=  0.00148514
 Iteration  3 RMS(Cart)=  0.00138580 RMS(Int)=  0.00000019
 Iteration  4 RMS(Cart)=  0.00000017 RMS(Int)=  0.00000000
 Variable       Old X    -DE/DX   Delta X   Delta X   Delta X     New X
                                 (Linear)    (Quad)   (Total)
    R1        1.88973  -0.03102   0.00000  -0.04936  -0.04936   1.84037
    R2        1.88973  -0.03102   0.00000  -0.04936  -0.04936   1.84037
    A1        1.57080   0.06842   0.00000   0.29177   0.29177   1.86256
         Item               Value     Threshold  Converged?
 Maximum Force            0.068420     0.000002     NO 
 RMS     Force            0.046924     0.000001     NO 
 Maximum Displacement     0.155384     0.000006     NO 
 RMS     Displacement     0.160396     0.000004     NO 
 Predicted change in Energy=-1.505257D-02
 GradGradGradGradGradGradGradGradGradGradGradGradGradGradGradGradGradGrad

 Leave Link  103 at Fri Feb 15 10:54:28 2019, MaxMem=   33554432 cpu:       0.0
 (Enter D:\G09W\l202.exe)
                          Input orientation:                          
 ---------------------------------------------------------------------
 Center     Atomic      Atomic             Coordinates (Angstroms)
 Number     Number       Type             X           Y           Z
 ---------------------------------------------------------------------
      1          8           0        1.000000    0.059344    0.059344
      2          1           0        1.000000    1.022882   -0.082226
      3          1           0        1.000000   -0.082226    1.022882
 ---------------------------------------------------------------------
                    Distance matrix (angstroms):
                    1          2          3
     1  O    0.000000
     2  H    0.973882   0.000000
     3  H    0.973882   1.562858   0.000000
 Symmetry turned off by external request.
 Stoichiometry    H2O
 Framework group  C2V[C2(O),SGV(H2)]
 Deg. of freedom     2
 Full point group                 C2V     NOp   4
 Rotational constants (GHZ):    835.7344593    410.6040381    275.3312559
 Leave Link  202 at Fri Feb 15 10:54:28 2019, MaxMem=   33554432 cpu:       0.0
 (Enter D:\G09W\l301.exe)
 Standard basis: 6-31G (6D, 7F)
 Ernie: Thresh=  0.10000D-02 Tol=  0.10000D-05 Strict=F.
 Integral buffers will be    262144 words long.
 Raffenetti 1 integral format.
 Two-electron integral symmetry is turned off.
    13 basis functions,    30 primitive gaussians,    13 cartesian basis functions
     5 alpha electrons        5 beta electrons
       nuclear repulsion energy         9.0324985481 Hartrees.
 IExCor=    0 DFT=F Ex=HF Corr=None ExCW=0 ScaHFX=  1.000000
 ScaDFX=  1.000000  1.000000  1.000000  1.000000 ScalE2=  1.000000  1.000000
 IRadAn=      0 IRanWt=     -1 IRanGd=            0 ICorTp=0
 NAtoms=    3 NActive=    3 NUniq=    3 SFac= 1.00D+00 NAtFMM=   50 NAOKFM=F Big=F
 Leave Link  301 at Fri Feb 15 10:54:28 2019, MaxMem=   33554432 cpu:       0.0
 (Enter D:\G09W\l302.exe)
 NPDir=0 NMtPBC=     1 NCelOv=     1 NCel=       1 NClECP=     1 NCelD=      1
         NCelK=      1 NCelE2=     1 NClLst=     1 CellRange=     0.0.
 One-electron integrals computed using PRISM.
 NBasis=    13 RedAO= T  NBF=    13
 NBsUse=    13 1.00D-06 NBFU=    13
 Leave Link  302 at Fri Feb 15 10:54:28 2019, MaxMem=   33554432 cpu:       0.0
 (Enter D:\G09W\l303.exe)
 DipDrv:  MaxL=1.
 Leave Link  303 at Fri Feb 15 10:54:28 2019, MaxMem=   33554432 cpu:       0.0
 (Enter D:\G09W\l401.exe)
 Initial guess read from the read-write file.
 B after Tr=     0.000000    0.000000    0.000000
         Rot=    1.000000    0.000000    0.000000    0.000000 Ang=   0.00 deg.
 Guess basis will be translated and rotated to current coordinates.
 Generating alternative initial guess.
 Harris functional with IExCor=  205 diagonalized for initial guess.
 ExpMin= 1.61D-01 ExpMax= 5.48D+03 ExpMxC= 8.25D+02 IAcc=1 IRadAn=         1 AccDes= 0.00D+00
 HarFok:  IExCor=  205 AccDes= 0.00D+00 IRadAn=         1 IDoV= 1
 ScaDFX=  1.000000  1.000000  1.000000  1.000000
 FoFCou: FMM=F IPFlag=           0 FMFlag=      100000 FMFlg1=           0
         NFxFlg=           0 DoJE=T BraDBF=F KetDBF=T FulRan=T
         Omega=  0.000000  0.000000  1.000000  0.000000  0.000000 ICntrl=     500 IOpCl=  0
         NMat0=    1 NMatS0=    1 NMatT0=    0 NMatD0=    1 NMtDS0=    0 NMtDT0=    0
         I1Cent=           4 NGrid=           0.
 Symmetry not used in FoFCou.
 Harris En= -76.0829492026570    
 Leave Link  401 at Fri Feb 15 10:54:29 2019, MaxMem=   33554432 cpu:       0.0
 (Enter D:\G09W\l502.exe)
 Closed shell SCF:
 Requested convergence on RMS density matrix=1.00D-08 within 128 cycles.
 Requested convergence on MAX density matrix=1.00D-06.
 Requested convergence on             energy=1.00D-06.
 No special actions if energy rises.
 Using DIIS extrapolation, IDIIS=  1040.
 Two-electron integral symmetry not used.
 Keep R1 ints in memory in canonical form, NReq=823903.
 IEnd=       19703 IEndB=       19703 NGot=    33554432 MDV=    33547618
 LenX=    33547618 LenY=    33546736
 Symmetry not used in FoFDir.
 MinBra= 0 MaxBra= 1 Meth= 1.
 IRaf=       0 NMat=   1 IRICut=       1 DoRegI=T DoRafI=F ISym2E= 0 JSym2E=0.

 Cycle   1  Pass 1  IDiag  1:
 E= -75.9794160847149    
 DIIS: error= 1.51D-02 at cycle   1 NSaved=   1.
 NSaved= 1 IEnMin= 1 EnMin= -75.9794160847149     IErMin= 1 ErrMin= 1.51D-02
 ErrMax= 1.51D-02 EMaxC= 1.00D-01 BMatC= 2.68D-03 BMatP= 2.68D-03
 IDIUse=3 WtCom= 8.49D-01 WtEn= 1.51D-01
 Coeff-Com:  0.100D+01
 Coeff-En:   0.100D+01
 Coeff:      0.100D+01
 Recover alternate guess density for next cycle.
 RMSDP=1.74D-02 MaxDP=9.33D-02              OVMax= 0.00D+00

 Cycle   2  Pass 1  IDiag  1:
 E= -75.9082655476590     Delta-E=        0.071150537056 Rises=F Damp=F
 Switch densities from cycles 1 and 2 for lowest energy.
 DIIS: error= 9.03D-02 at cycle   2 NSaved=   2.
 NSaved= 2 IEnMin= 1 EnMin= -75.9794160847149     IErMin= 1 ErrMin= 1.51D-02
 ErrMax= 9.03D-02 EMaxC= 1.00D+00 BMatC= 1.04D-01 BMatP= 2.68D-03
 IDIUse=1 WtCom= 1.00D+00 WtEn= 0.00D+00
 Coeff-Com:  0.938D+00 0.617D-01
 Coeff:      0.938D+00 0.617D-01
 Gap=     0.709 Goal=   None    Shift=    0.000
 RMSDP=5.05D-03 MaxDP=1.67D-02 DE= 7.12D-02 OVMax= 8.86D-02

 Cycle   3  Pass 1  IDiag  1:
 E= -75.9835399387633     Delta-E=       -0.075274391104 Rises=F Damp=F
 DIIS: error= 3.15D-03 at cycle   3 NSaved=   3.
 NSaved= 3 IEnMin= 3 EnMin= -75.9835399387633     IErMin= 3 ErrMin= 3.15D-03
 ErrMax= 3.15D-03 EMaxC= 1.00D+00 BMatC= 1.41D-04 BMatP= 2.68D-03
 IDIUse=1 WtCom= 1.00D+00 WtEn= 0.00D+00
 Coeff-Com: -0.280D+00-0.131D-01 0.129D+01
 Coeff:     -0.280D+00-0.131D-01 0.129D+01
 Gap=     0.701 Goal=   None    Shift=    0.000
 RMSDP=1.68D-03 MaxDP=5.04D-03 DE=-7.53D-02 OVMax= 8.82D-03

 Cycle   4  Pass 1  IDiag  1:
 E= -75.9838399186099     Delta-E=       -0.000299979847 Rises=F Damp=F
 DIIS: error= 7.50D-04 at cycle   4 NSaved=   4.
 NSaved= 4 IEnMin= 4 EnMin= -75.9838399186099     IErMin= 4 ErrMin= 7.50D-04
 ErrMax= 7.50D-04 EMaxC= 1.00D+00 BMatC= 4.38D-06 BMatP= 1.41D-04
 IDIUse=1 WtCom= 1.00D+00 WtEn= 0.00D+00
 Coeff-Com:  0.142D+00 0.657D-02-0.715D+00 0.157D+01
 Coeff:      0.142D+00 0.657D-02-0.715D+00 0.157D+01
 Gap=     0.700 Goal=   None    Shift=    0.000
 RMSDP=4.52D-04 MaxDP=9.96D-04 DE=-3.00D-04 OVMax= 3.36D-03

 Cycle   5  Pass 1  IDiag  1:
 E= -75.9838552512399     Delta-E=       -0.000015332630 Rises=F Damp=F
 DIIS: error= 1.15D-04 at cycle   5 NSaved=   5.
 NSaved= 5 IEnMin= 5 EnMin= -75.9838552512399     IErMin= 5 ErrMin= 1.15D-04
 ErrMax= 1.15D-04 EMaxC= 1.00D+00 BMatC= 1.26D-07 BMatP= 4.38D-06
 IDIUse=1 WtCom= 1.00D+00 WtEn= 0.00D+00
 Coeff-Com: -0.263D-01-0.166D-02 0.137D+00-0.408D+00 0.130D+01
 Coeff:     -0.263D-01-0.166D-02 0.137D+00-0.408D+00 0.130D+01
 Gap=     0.700 Goal=   None    Shift=    0.000
 RMSDP=6.48D-05 MaxDP=2.14D-04 DE=-1.53D-05 OVMax= 4.21D-04

 Cycle   6  Pass 1  IDiag  1:
 E= -75.9838556060244     Delta-E=       -0.000000354784 Rises=F Damp=F
 DIIS: error= 1.94D-05 at cycle   6 NSaved=   6.
 NSaved= 6 IEnMin= 6 EnMin= -75.9838556060244     IErMin= 6 ErrMin= 1.94D-05
 ErrMax= 1.94D-05 EMaxC= 1.00D+00 BMatC= 5.10D-09 BMatP= 1.26D-07
 IDIUse=1 WtCom= 1.00D+00 WtEn= 0.00D+00
 Coeff-Com:  0.133D-03 0.220D-03-0.202D-02 0.358D-01-0.322D+00 0.129D+01
 Coeff:      0.133D-03 0.220D-03-0.202D-02 0.358D-01-0.322D+00 0.129D+01
 Gap=     0.700 Goal=   None    Shift=    0.000
 RMSDP=8.93D-06 MaxDP=4.33D-05 DE=-3.55D-07 OVMax= 4.61D-05

 Cycle   7  Pass 1  IDiag  1:
 E= -75.9838556161101     Delta-E=       -0.000000010086 Rises=F Damp=F
 DIIS: error= 4.14D-06 at cycle   7 NSaved=   7.
 NSaved= 7 IEnMin= 7 EnMin= -75.9838556161101     IErMin= 7 ErrMin= 4.14D-06
 ErrMax= 4.14D-06 EMaxC= 1.00D+00 BMatC= 9.84D-11 BMatP= 5.10D-09
 IDIUse=1 WtCom= 1.00D+00 WtEn= 0.00D+00
 Coeff-Com:  0.380D-03-0.152D-04-0.179D-02 0.181D-02 0.152D-01-0.174D+00
 Coeff-Com:  0.116D+01
 Coeff:      0.380D-03-0.152D-04-0.179D-02 0.181D-02 0.152D-01-0.174D+00
 Coeff:      0.116D+01
 Gap=     0.700 Goal=   None    Shift=    0.000
 RMSDP=1.09D-06 MaxDP=5.11D-06 DE=-1.01D-08 OVMax= 7.68D-06

 Cycle   8  Pass 1  IDiag  1:
 E= -75.9838556163085     Delta-E=       -0.000000000198 Rises=F Damp=F
 DIIS: error= 7.01D-07 at cycle   8 NSaved=   8.
 NSaved= 8 IEnMin= 8 EnMin= -75.9838556163085     IErMin= 8 ErrMin= 7.01D-07
 ErrMax= 7.01D-07 EMaxC= 1.00D+00 BMatC= 3.03D-12 BMatP= 9.84D-11
 IDIUse=1 WtCom= 1.00D+00 WtEn= 0.00D+00
 Coeff-Com: -0.740D-04 0.554D-06 0.363D-03-0.839D-03 0.269D-02 0.116D-01
 Coeff-Com: -0.275D+00 0.126D+01
 Coeff:     -0.740D-04 0.554D-06 0.363D-03-0.839D-03 0.269D-02 0.116D-01
 Coeff:     -0.275D+00 0.126D+01
 Gap=     0.700 Goal=   None    Shift=    0.000
 RMSDP=1.92D-07 MaxDP=1.37D-06 DE=-1.98D-10 OVMax= 8.60D-07

 Cycle   9  Pass 1  IDiag  1:
 E= -75.9838556163145     Delta-E=       -0.000000000006 Rises=F Damp=F
 DIIS: error= 6.98D-08 at cycle   9 NSaved=   9.
 NSaved= 9 IEnMin= 9 EnMin= -75.9838556163145     IErMin= 9 ErrMin= 6.98D-08
 ErrMax= 6.98D-08 EMaxC= 1.00D+00 BMatC= 6.83D-14 BMatP= 3.03D-12
 IDIUse=1 WtCom= 1.00D+00 WtEn= 0.00D+00
 Coeff-Com:  0.153D-04 0.195D-06-0.770D-04 0.226D-03-0.129D-02 0.143D-02
 Coeff-Com:  0.497D-01-0.357D+00 0.131D+01
 Coeff:      0.153D-04 0.195D-06-0.770D-04 0.226D-03-0.129D-02 0.143D-02
 Coeff:      0.497D-01-0.357D+00 0.131D+01
 Gap=     0.700 Goal=   None    Shift=    0.000
 RMSDP=3.80D-08 MaxDP=1.74D-07 DE=-5.98D-12 OVMax= 1.83D-07

 Cycle  10  Pass 1  IDiag  1:
 E= -75.9838556163147     Delta-E=        0.000000000000 Rises=F Damp=F
 DIIS: error= 4.49D-09 at cycle  10 NSaved=  10.
 NSaved=10 IEnMin=10 EnMin= -75.9838556163147     IErMin=10 ErrMin= 4.49D-09
 ErrMax= 4.49D-09 EMaxC= 1.00D+00 BMatC= 1.87D-16 BMatP= 6.83D-14
 IDIUse=1 WtCom= 1.00D+00 WtEn= 0.00D+00
 Coeff-Com: -0.172D-05-0.453D-07 0.876D-05-0.264D-04 0.152D-03-0.251D-03
 Coeff-Com: -0.510D-02 0.404D-01-0.175D+00 0.114D+01
 Coeff:     -0.172D-05-0.453D-07 0.876D-05-0.264D-04 0.152D-03-0.251D-03
 Coeff:     -0.510D-02 0.404D-01-0.175D+00 0.114D+01
 Gap=     0.700 Goal=   None    Shift=    0.000
 RMSDP=2.08D-09 MaxDP=6.88D-09 DE=-2.27D-13 OVMax= 1.00D-08

 SCF Done:  E(RHF) =  -75.9838556163     A.U. after   10 cycles
             Convg  =    0.2083D-08             -V/T =  2.0007
 KE= 7.592738395590D+01 PE=-1.986299475237D+02 EE= 3.768620940337D+01
 Leave Link  502 at Fri Feb 15 10:54:29 2019, MaxMem=   33554432 cpu:       0.0
 (Enter D:\G09W\l701.exe)
 Compute integral first derivatives.
 ... and contract with generalized density number  0.
 Leave Link  701 at Fri Feb 15 10:54:29 2019, MaxMem=   33554432 cpu:       0.0
 (Enter D:\G09W\l702.exe)
 L702 exits ... SP integral derivatives will be done elsewhere.
 Leave Link  702 at Fri Feb 15 10:54:29 2019, MaxMem=   33554432 cpu:       0.0
 (Enter D:\G09W\l703.exe)
 Compute integral first derivatives, UseDBF=F ICtDFT=           0.
 Integral derivatives from FoFDir, PRISM(SPDF).
 Calling FoFJK, ICntrl=      2127 FMM=F ISym2X=0 I1Cent= 0 IOpClX= 0 NMat=1 NMatS=1 NMatT=0.
 FoFCou: FMM=F IPFlag=           0 FMFlag=      100000 FMFlg1=         800
         NFxFlg=           0 DoJE=F BraDBF=F KetDBF=F FulRan=T
         Omega=  0.000000  0.000000  1.000000  0.000000  0.000000 ICntrl=    2127 IOpCl=  0
         NMat0=    1 NMatS0=    1 NMatT0=    0 NMatD0=    1 NMtDS0=    0 NMtDT0=    0
         I1Cent=           0 NGrid=           0.
 Symmetry not used in FoFCou.
 Leave Link  703 at Fri Feb 15 10:54:29 2019, MaxMem=   33554432 cpu:       0.0
 (Enter D:\G09W\l716.exe)
 Dipole        =-3.41948692D-14 7.22797699D-01 7.22797699D-01
 -------------------------------------------------------------------
 Center     Atomic                   Forces (Hartrees/Bohr)
 Number     Number              X              Y              Z
 -------------------------------------------------------------------
      1        8           0.000000000    0.025357164    0.025357164
      2        1           0.000000000   -0.022097995   -0.003259169
      3        1           0.000000000   -0.003259169   -0.022097995
 -------------------------------------------------------------------
 Cartesian Forces:  Max     0.025357164 RMS     0.015929911
 Leave Link  716 at Fri Feb 15 10:54:29 2019, MaxMem=   33554432 cpu:       0.0
 (Enter D:\G09W\l103.exe)

 GradGradGradGradGradGradGradGradGradGradGradGradGradGradGradGradGradGrad
 Berny optimization.
 Using GEDIIS/GDIIS optimizer.
 Internal  Forces:  Max     0.021389492 RMS     0.018755918
 Search for a local minimum.
 Step number   2 out of a maximum of   20
 All quantities printed in internal units (Hartrees-Bohrs-Radians)
 RMS Force = .18756D-01 SwitMx=.10000D-02 MixMth= 1
 Mixed Optimization -- RFO/linear search
 Update second derivatives using D2CorX and points    1    2
 DE= -1.42D-02 DEPred=-1.51D-02 R= 9.40D-01
 SS=  1.41D+00  RLast= 3.00D-01 DXNew= 5.0454D-01 9.0000D-01
 Trust test= 9.40D-01 RLast= 3.00D-01 DXMaxT set to 5.05D-01
 The second derivative matrix:
                          R1        R2        A1
           R1           0.44745
           R2          -0.02944   0.44745
           A1           0.03771   0.03771   0.20666
 ITU=  1  0
 Use linear search instead of GDIIS.
     Eigenvalues ---    0.19396   0.43071   0.47688
 RFO step:  Lambda=-1.64093427D-03 EMin= 1.93963817D-01
 Quartic linear search produced a step of  0.34086.
 Iteration  1 RMS(Cart)=  0.04610296 RMS(Int)=  0.00210835
 Iteration  2 RMS(Cart)=  0.00232202 RMS(Int)=  0.00000188
 Iteration  3 RMS(Cart)=  0.00000125 RMS(Int)=  0.00000000
 Iteration  4 RMS(Cart)=  0.00000000 RMS(Int)=  0.00000000
 Variable       Old X    -DE/DX   Delta X   Delta X   Delta X     New X
                                 (Linear)    (Quad)   (Total)
    R1        1.84037  -0.02139  -0.01682  -0.04235  -0.05918   1.78119
    R2        1.84037  -0.02139  -0.01682  -0.04235  -0.05918   1.78119
    A1        1.86256   0.01185   0.09945  -0.01442   0.08504   1.94760
         Item               Value     Threshold  Converged?
 Maximum Force            0.021389     0.000002     NO 
 RMS     Force            0.018756     0.000001     NO 
 Maximum Displacement     0.045739     0.000006     NO 
 RMS     Displacement     0.045833     0.000004     NO 
 Predicted change in Energy=-1.707391D-03
 GradGradGradGradGradGradGradGradGradGradGradGradGradGradGradGradGradGrad

 Leave Link  103 at Fri Feb 15 10:54:29 2019, MaxMem=   33554432 cpu:       0.0
 (Enter D:\G09W\l202.exe)
                          Input orientation:                          
 ---------------------------------------------------------------------
 Center     Atomic      Atomic             Coordinates (Angstroms)
 Number     Number       Type             X           Y           Z
 ---------------------------------------------------------------------
      1          8           0        1.000000    0.083548    0.083548
      2          1           0        1.000000    1.009436   -0.092984
      3          1           0        1.000000   -0.092984    1.009436
 ---------------------------------------------------------------------
                    Distance matrix (angstroms):
                    1          2          3
     1  O    0.000000
     2  H    0.942567   0.000000
     3  H    0.942567   1.559058   0.000000
 Symmetry turned off by external request.
 Stoichiometry    H2O
 Framework group  C2V[C2(O),SGV(H2)]
 Deg. of freedom     2
 Full point group                 C2V     NOp   4
 Rotational constants (GHZ):   1005.5448278    412.6077728    292.5606255
 Leave Link  202 at Fri Feb 15 10:54:29 2019, MaxMem=   33554432 cpu:       0.0
 (Enter D:\G09W\l301.exe)
 Standard basis: 6-31G (6D, 7F)
 Ernie: Thresh=  0.10000D-02 Tol=  0.10000D-05 Strict=F.
 Integral buffers will be    262144 words long.
 Raffenetti 1 integral format.
 Two-electron integral symmetry is turned off.
    13 basis functions,    30 primitive gaussians,    13 cartesian basis functions
     5 alpha electrons        5 beta electrons
       nuclear repulsion energy         9.3221620491 Hartrees.
 IExCor=    0 DFT=F Ex=HF Corr=None ExCW=0 ScaHFX=  1.000000
 ScaDFX=  1.000000  1.000000  1.000000  1.000000 ScalE2=  1.000000  1.000000
 IRadAn=      0 IRanWt=     -1 IRanGd=            0 ICorTp=0
 NAtoms=    3 NActive=    3 NUniq=    3 SFac= 1.00D+00 NAtFMM=   50 NAOKFM=F Big=F
 Leave Link  301 at Fri Feb 15 10:54:29 2019, MaxMem=   33554432 cpu:       0.0
 (Enter D:\G09W\l302.exe)
 NPDir=0 NMtPBC=     1 NCelOv=     1 NCel=       1 NClECP=     1 NCelD=      1
         NCelK=      1 NCelE2=     1 NClLst=     1 CellRange=     0.0.
 One-electron integrals computed using PRISM.
 NBasis=    13 RedAO= T  NBF=    13
 NBsUse=    13 1.00D-06 NBFU=    13
 Leave Link  302 at Fri Feb 15 10:54:29 2019, MaxMem=   33554432 cpu:       0.0
 (Enter D:\G09W\l303.exe)
 DipDrv:  MaxL=1.
 Leave Link  303 at Fri Feb 15 10:54:29 2019, MaxMem=   33554432 cpu:       0.0
 (Enter D:\G09W\l401.exe)
 Initial guess read from the read-write file.
 B after Tr=     0.000000    0.000000    0.000000
         Rot=    1.000000    0.000000    0.000000    0.000000 Ang=   0.00 deg.
 Guess basis will be translated and rotated to current coordinates.
 Generating alternative initial guess.
 Harris functional with IExCor=  205 diagonalized for initial guess.
 ExpMin= 1.61D-01 ExpMax= 5.48D+03 ExpMxC= 8.25D+02 IAcc=1 IRadAn=         1 AccDes= 0.00D+00
 HarFok:  IExCor=  205 AccDes= 0.00D+00 IRadAn=         1 IDoV= 1
 ScaDFX=  1.000000  1.000000  1.000000  1.000000
 FoFCou: FMM=F IPFlag=           0 FMFlag=      100000 FMFlg1=           0
         NFxFlg=           0 DoJE=T BraDBF=F KetDBF=T FulRan=T
         Omega=  0.000000  0.000000  1.000000  0.000000  0.000000 ICntrl=     500 IOpCl=  0
         NMat0=    1 NMatS0=    1 NMatT0=    0 NMatD0=    1 NMtDS0=    0 NMtDT0=    0
         I1Cent=           4 NGrid=           0.
 Symmetry not used in FoFCou.
 Harris En= -76.0838370721179    
 Leave Link  401 at Fri Feb 15 10:54:29 2019, MaxMem=   33554432 cpu:       0.0
 (Enter D:\G09W\l502.exe)
 Closed shell SCF:
 Requested convergence on RMS density matrix=1.00D-08 within 128 cycles.
 Requested convergence on MAX density matrix=1.00D-06.
 Requested convergence on             energy=1.00D-06.
 No special actions if energy rises.
 Using DIIS extrapolation, IDIIS=  1040.
 Two-electron integral symmetry not used.
 Keep R1 ints in memory in canonical form, NReq=823903.
 IEnd=       19703 IEndB=       19703 NGot=    33554432 MDV=    33547618
 LenX=    33547618 LenY=    33546736
 Symmetry not used in FoFDir.
 MinBra= 0 MaxBra= 1 Meth= 1.
 IRaf=       0 NMat=   1 IRICut=       1 DoRegI=T DoRafI=F ISym2E= 0 JSym2E=0.

 Cycle   1  Pass 1  IDiag  1:
 E= -75.9840188649845    
 DIIS: error= 8.35D-03 at cycle   1 NSaved=   1.
 NSaved= 1 IEnMin= 1 EnMin= -75.9840188649845     IErMin= 1 ErrMin= 8.35D-03
 ErrMax= 8.35D-03 EMaxC= 1.00D-01 BMatC= 8.96D-04 BMatP= 8.96D-04
 IDIUse=3 WtCom= 9.16D-01 WtEn= 8.35D-02
 Coeff-Com:  0.100D+01
 Coeff-En:   0.100D+01
 Coeff:      0.100D+01
 Gap=     0.717 Goal=   None    Shift=    0.000
 GapD=    0.717 DampG=2.000 DampE=1.000 DampFc=2.0000 IDamp=-1.
 RMSDP=2.50D-03 MaxDP=1.14D-02              OVMax= 1.10D-02

 Cycle   2  Pass 1  IDiag  1:
 E= -75.9850925821292     Delta-E=       -0.001073717145 Rises=F Damp=F
 DIIS: error= 3.38D-03 at cycle   2 NSaved=   2.
 NSaved= 2 IEnMin= 2 EnMin= -75.9850925821292     IErMin= 2 ErrMin= 3.38D-03
 ErrMax= 3.38D-03 EMaxC= 1.00D-01 BMatC= 1.47D-04 BMatP= 8.96D-04
 IDIUse=3 WtCom= 9.66D-01 WtEn= 3.38D-02
 Coeff-Com:  0.123D+00 0.877D+00
 Coeff-En:   0.000D+00 0.100D+01
 Coeff:      0.119D+00 0.881D+00
 Gap=     0.707 Goal=   None    Shift=    0.000
 RMSDP=7.81D-04 MaxDP=4.41D-03 DE=-1.07D-03 OVMax= 2.19D-03

 Cycle   3  Pass 1  IDiag  1:
 E= -75.9852234662332     Delta-E=       -0.000130884104 Rises=F Damp=F
 DIIS: error= 1.24D-03 at cycle   3 NSaved=   3.
 NSaved= 3 IEnMin= 3 EnMin= -75.9852234662332     IErMin= 3 ErrMin= 1.24D-03
 ErrMax= 1.24D-03 EMaxC= 1.00D-01 BMatC= 1.84D-05 BMatP= 1.47D-04
 IDIUse=3 WtCom= 9.88D-01 WtEn= 1.24D-02
 Coeff-Com: -0.113D+00 0.142D+00 0.971D+00
 Coeff-En:   0.000D+00 0.000D+00 0.100D+01
 Coeff:     -0.112D+00 0.140D+00 0.971D+00
 Gap=     0.708 Goal=   None    Shift=    0.000
 RMSDP=4.48D-04 MaxDP=1.79D-03 DE=-1.31D-04 OVMax= 2.88D-03

 Cycle   4  Pass 1  IDiag  1:
 E= -75.9852518496592     Delta-E=       -0.000028383426 Rises=F Damp=F
 DIIS: error= 2.47D-04 at cycle   4 NSaved=   4.
 NSaved= 4 IEnMin= 4 EnMin= -75.9852518496592     IErMin= 4 ErrMin= 2.47D-04
 ErrMax= 2.47D-04 EMaxC= 1.00D-01 BMatC= 7.21D-07 BMatP= 1.84D-05
 IDIUse=3 WtCom= 9.98D-01 WtEn= 2.47D-03
 Coeff-Com:  0.464D-01-0.114D+00-0.387D+00 0.145D+01
 Coeff-En:   0.000D+00 0.000D+00 0.000D+00 0.100D+01
 Coeff:      0.463D-01-0.114D+00-0.386D+00 0.145D+01
 Gap=     0.708 Goal=   None    Shift=    0.000
 RMSDP=1.69D-04 MaxDP=4.89D-04 DE=-2.84D-05 OVMax= 1.15D-03

 Cycle   5  Pass 1  IDiag  1:
 E= -75.9852538866091     Delta-E=       -0.000002036950 Rises=F Damp=F
 DIIS: error= 3.48D-05 at cycle   5 NSaved=   5.
 NSaved= 5 IEnMin= 5 EnMin= -75.9852538866091     IErMin= 5 ErrMin= 3.48D-05
 ErrMax= 3.48D-05 EMaxC= 1.00D-01 BMatC= 1.51D-08 BMatP= 7.21D-07
 IDIUse=1 WtCom= 1.00D+00 WtEn= 0.00D+00
 Coeff-Com: -0.113D-01 0.294D-01 0.974D-01-0.456D+00 0.134D+01
 Coeff:     -0.113D-01 0.294D-01 0.974D-01-0.456D+00 0.134D+01
 Gap=     0.707 Goal=   None    Shift=    0.000
 RMSDP=2.39D-05 MaxDP=7.34D-05 DE=-2.04D-06 OVMax= 1.52D-04

 Cycle   6  Pass 1  IDiag  1:
 E= -75.9852539307192     Delta-E=       -0.000000044110 Rises=F Damp=F
 DIIS: error= 7.38D-06 at cycle   6 NSaved=   6.
 NSaved= 6 IEnMin= 6 EnMin= -75.9852539307192     IErMin= 6 ErrMin= 7.38D-06
 ErrMax= 7.38D-06 EMaxC= 1.00D-01 BMatC= 6.20D-10 BMatP= 1.51D-08
 IDIUse=1 WtCom= 1.00D+00 WtEn= 0.00D+00
 Coeff-Com:  0.148D-02-0.374D-02-0.145D-01 0.832D-01-0.434D+00 0.137D+01
 Coeff:      0.148D-02-0.374D-02-0.145D-01 0.832D-01-0.434D+00 0.137D+01
 Gap=     0.707 Goal=   None    Shift=    0.000
 RMSDP=3.68D-06 MaxDP=1.76D-05 DE=-4.41D-08 OVMax= 1.84D-05

 Cycle   7  Pass 1  IDiag  1:
 E= -75.9852539321303     Delta-E=       -0.000000001411 Rises=F Damp=F
 DIIS: error= 6.44D-07 at cycle   7 NSaved=   7.
 NSaved= 7 IEnMin= 7 EnMin= -75.9852539321303     IErMin= 7 ErrMin= 6.44D-07
 ErrMax= 6.44D-07 EMaxC= 1.00D-01 BMatC= 5.32D-12 BMatP= 6.20D-10
 IDIUse=1 WtCom= 1.00D+00 WtEn= 0.00D+00
 Coeff-Com: -0.405D-03 0.987D-03 0.413D-02-0.239D-01 0.134D+00-0.465D+00
 Coeff-Com:  0.135D+01
 Coeff:     -0.405D-03 0.987D-03 0.413D-02-0.239D-01 0.134D+00-0.465D+00
 Coeff:      0.135D+01
 Gap=     0.707 Goal=   None    Shift=    0.000
 RMSDP=2.62D-07 MaxDP=1.39D-06 DE=-1.41D-09 OVMax= 1.35D-06

 Cycle   8  Pass 1  IDiag  1:
 E= -75.9852539321408     Delta-E=       -0.000000000010 Rises=F Damp=F
 DIIS: error= 7.56D-08 at cycle   8 NSaved=   8.
 NSaved= 8 IEnMin= 8 EnMin= -75.9852539321408     IErMin= 8 ErrMin= 7.56D-08
 ErrMax= 7.56D-08 EMaxC= 1.00D-01 BMatC= 7.55D-14 BMatP= 5.32D-12
 IDIUse=1 WtCom= 1.00D+00 WtEn= 0.00D+00
 Coeff-Com:  0.863D-04-0.214D-03-0.885D-03 0.515D-02-0.295D-01 0.104D+00
 Coeff-Com: -0.365D+00 0.129D+01
 Coeff:      0.863D-04-0.214D-03-0.885D-03 0.515D-02-0.295D-01 0.104D+00
 Coeff:     -0.365D+00 0.129D+01
 Gap=     0.707 Goal=   None    Shift=    0.000
 RMSDP=4.81D-08 MaxDP=1.67D-07 DE=-1.05D-11 OVMax= 2.55D-07

 Cycle   9  Pass 1  IDiag  1:
 E= -75.9852539321409     Delta-E=        0.000000000000 Rises=F Damp=F
 DIIS: error= 1.01D-08 at cycle   9 NSaved=   9.
 NSaved= 9 IEnMin= 9 EnMin= -75.9852539321409     IErMin= 9 ErrMin= 1.01D-08
 ErrMax= 1.01D-08 EMaxC= 1.00D-01 BMatC= 9.23D-16 BMatP= 7.55D-14
 IDIUse=1 WtCom= 1.00D+00 WtEn= 0.00D+00
 Coeff-Com: -0.600D-05 0.144D-04 0.653D-04-0.378D-03 0.223D-02-0.810D-02
 Coeff-Com:  0.327D-01-0.197D+00 0.117D+01
 Coeff:     -0.600D-05 0.144D-04 0.653D-04-0.378D-03 0.223D-02-0.810D-02
 Coeff:      0.327D-01-0.197D+00 0.117D+01
 Gap=     0.707 Goal=   None    Shift=    0.000
 RMSDP=5.40D-09 MaxDP=1.48D-08 DE=-1.14D-13 OVMax= 2.72D-08

 SCF Done:  E(RHF) =  -75.9852539321     A.U. after    9 cycles
             Convg  =    0.5398D-08             -V/T =  1.9992
 KE= 7.604386548568D+01 PE=-1.992845838731D+02 EE= 3.793330240610D+01
 Leave Link  502 at Fri Feb 15 10:54:30 2019, MaxMem=   33554432 cpu:       0.0
 (Enter D:\G09W\l701.exe)
 Compute integral first derivatives.
 ... and contract with generalized density number  0.
 Leave Link  701 at Fri Feb 15 10:54:30 2019, MaxMem=   33554432 cpu:       0.0
 (Enter D:\G09W\l702.exe)
 L702 exits ... SP integral derivatives will be done elsewhere.
 Leave Link  702 at Fri Feb 15 10:54:30 2019, MaxMem=   33554432 cpu:       0.0
 (Enter D:\G09W\l703.exe)
 Compute integral first derivatives, UseDBF=F ICtDFT=           0.
 Integral derivatives from FoFDir, PRISM(SPDF).
 Calling FoFJK, ICntrl=      2127 FMM=F ISym2X=0 I1Cent= 0 IOpClX= 0 NMat=1 NMatS=1 NMatT=0.
 FoFCou: FMM=F IPFlag=           0 FMFlag=      100000 FMFlg1=         800
         NFxFlg=           0 DoJE=F BraDBF=F KetDBF=F FulRan=T
         Omega=  0.000000  0.000000  1.000000  0.000000  0.000000 ICntrl=    2127 IOpCl=  0
         NMat0=    1 NMatS0=    1 NMatT0=    0 NMatD0=    1 NMtDS0=    0 NMtDT0=    0
         I1Cent=           0 NGrid=           0.
 Symmetry not used in FoFCou.
 Leave Link  703 at Fri Feb 15 10:54:30 2019, MaxMem=   33554432 cpu:       0.0
 (Enter D:\G09W\l716.exe)
 Dipole        = 1.55431223D-14 6.94559615D-01 6.94559615D-01
 -------------------------------------------------------------------
 Center     Atomic                   Forces (Hartrees/Bohr)
 Number     Number              X              Y              Z
 -------------------------------------------------------------------
      1        8           0.000000000   -0.005746070   -0.005746070
      2        1           0.000000000    0.007739895   -0.001993826
      3        1           0.000000000   -0.001993826    0.007739895
 -------------------------------------------------------------------
 Cartesian Forces:  Max     0.007739895 RMS     0.004640370
 Leave Link  716 at Fri Feb 15 10:54:30 2019, MaxMem=   33554432 cpu:       0.0
 (Enter D:\G09W\l103.exe)

 GradGradGradGradGradGradGradGradGradGradGradGradGradGradGradGradGradGrad
 Berny optimization.
 Using GEDIIS/GDIIS optimizer.
 Internal  Forces:  Max     0.007976359 RMS     0.006533667
 Search for a local minimum.
 Step number   3 out of a maximum of   20
 All quantities printed in internal units (Hartrees-Bohrs-Radians)
 RMS Force = .65337D-02 SwitMx=.10000D-02 MixMth= 1
 Mixed Optimization -- RFO/linear search
 Update second derivatives using D2CorX and points    1    2    3
 DE= -1.40D-03 DEPred=-1.71D-03 R= 8.19D-01
 SS=  1.41D+00  RLast= 1.19D-01 DXNew= 8.4853D-01 3.5793D-01
 Trust test= 8.19D-01 RLast= 1.19D-01 DXMaxT set to 5.05D-01
 The second derivative matrix:
                          R1        R2        A1
           R1           0.51117
           R2           0.03429   0.51117
           A1           0.03425   0.03425   0.17632
 ITU=  1  1  0
 Use linear search instead of GDIIS.
     Eigenvalues ---    0.17007   0.47688   0.55171
 RFO step:  Lambda=-7.10925419D-05 EMin= 1.70070572D-01
 Quartic linear search produced a step of -0.18391.
 Iteration  1 RMS(Cart)=  0.01064888 RMS(Int)=  0.00000717
 Iteration  2 RMS(Cart)=  0.00000652 RMS(Int)=  0.00000000
 Iteration  3 RMS(Cart)=  0.00000000 RMS(Int)=  0.00000000
 Variable       Old X    -DE/DX   Delta X   Delta X   Delta X     New X
                                 (Linear)    (Quad)   (Total)
    R1        1.78119   0.00798   0.01088   0.00321   0.01409   1.79529
    R2        1.78119   0.00798   0.01088   0.00321   0.01409   1.79529
    A1        1.94760   0.00091  -0.01564   0.01722   0.00158   1.94918
         Item               Value     Threshold  Converged?
 Maximum Force            0.007976     0.000002     NO 
 RMS     Force            0.006534     0.000001     NO 
 Maximum Displacement     0.010395     0.000006     NO 
 RMS     Displacement     0.010652     0.000004     NO 
 Predicted change in Energy=-1.161728D-04
 GradGradGradGradGradGradGradGradGradGradGradGradGradGradGradGradGradGrad

 Leave Link  103 at Fri Feb 15 10:54:30 2019, MaxMem=   33554432 cpu:       0.0
 (Enter D:\G09W\l202.exe)
                          Input orientation:                          
 ---------------------------------------------------------------------
 Center     Atomic      Atomic             Coordinates (Angstroms)
 Number     Number       Type             X           Y           Z
 ---------------------------------------------------------------------
      1          8           0        1.000000    0.081864    0.081864
      2          1           0        1.000000    1.014937   -0.096801
      3          1           0        1.000000   -0.096801    1.014937
 ---------------------------------------------------------------------
                    Distance matrix (angstroms):
                    1          2          3
     1  O    0.000000
     2  H    0.950024   0.000000
     3  H    0.950024   1.572235   0.000000
 Symmetry turned off by external request.
 Stoichiometry    H2O
 Framework group  C2V[C2(O),SGV(H2)]
 Deg. of freedom     2
 Full point group                 C2V     NOp   4
 Rotational constants (GHZ):    992.1241972    405.7205985    287.9613132
 Leave Link  202 at Fri Feb 15 10:54:30 2019, MaxMem=   33554432 cpu:       0.0
 (Enter D:\G09W\l301.exe)
 Standard basis: 6-31G (6D, 7F)
 Ernie: Thresh=  0.10000D-02 Tol=  0.10000D-05 Strict=F.
 Integral buffers will be    262144 words long.
 Raffenetti 1 integral format.
 Two-electron integral symmetry is turned off.
    13 basis functions,    30 primitive gaussians,    13 cartesian basis functions
     5 alpha electrons        5 beta electrons
       nuclear repulsion energy         9.2488085798 Hartrees.
 IExCor=    0 DFT=F Ex=HF Corr=None ExCW=0 ScaHFX=  1.000000
 ScaDFX=  1.000000  1.000000  1.000000  1.000000 ScalE2=  1.000000  1.000000
 IRadAn=      0 IRanWt=     -1 IRanGd=            0 ICorTp=0
 NAtoms=    3 NActive=    3 NUniq=    3 SFac= 1.00D+00 NAtFMM=   50 NAOKFM=F Big=F
 Leave Link  301 at Fri Feb 15 10:54:30 2019, MaxMem=   33554432 cpu:       0.0
 (Enter D:\G09W\l302.exe)
 NPDir=0 NMtPBC=     1 NCelOv=     1 NCel=       1 NClECP=     1 NCelD=      1
         NCelK=      1 NCelE2=     1 NClLst=     1 CellRange=     0.0.
 One-electron integrals computed using PRISM.
 NBasis=    13 RedAO= T  NBF=    13
 NBsUse=    13 1.00D-06 NBFU=    13
 Leave Link  302 at Fri Feb 15 10:54:30 2019, MaxMem=   33554432 cpu:       0.0
 (Enter D:\G09W\l303.exe)
 DipDrv:  MaxL=1.
 Leave Link  303 at Fri Feb 15 10:54:30 2019, MaxMem=   33554432 cpu:       0.0
 (Enter D:\G09W\l401.exe)
 Initial guess read from the read-write file.
 B after Tr=     0.000000    0.000000    0.000000
         Rot=    1.000000    0.000000    0.000000    0.000000 Ang=   0.00 deg.
 Guess basis will be translated and rotated to current coordinates.
 Leave Link  401 at Fri Feb 15 10:54:30 2019, MaxMem=   33554432 cpu:       0.0
 (Enter D:\G09W\l502.exe)
 Closed shell SCF:
 Requested convergence on RMS density matrix=1.00D-08 within 128 cycles.
 Requested convergence on MAX density matrix=1.00D-06.
 Requested convergence on             energy=1.00D-06.
 No special actions if energy rises.
 Using DIIS extrapolation, IDIIS=  1040.
 Two-electron integral symmetry not used.
 Keep R1 ints in memory in canonical form, NReq=823903.
 IEnd=       19703 IEndB=       19703 NGot=    33554432 MDV=    33547618
 LenX=    33547618 LenY=    33546736
 Symmetry not used in FoFDir.
 MinBra= 0 MaxBra= 1 Meth= 1.
 IRaf=       0 NMat=   1 IRICut=       1 DoRegI=T DoRafI=F ISym2E= 0 JSym2E=0.

 Cycle   1  Pass 1  IDiag  1:
 E= -75.9853144958057    
 DIIS: error= 1.54D-03 at cycle   1 NSaved=   1.
 NSaved= 1 IEnMin= 1 EnMin= -75.9853144958057     IErMin= 1 ErrMin= 1.54D-03
 ErrMax= 1.54D-03 EMaxC= 1.00D-01 BMatC= 3.90D-05 BMatP= 3.90D-05
 IDIUse=3 WtCom= 9.85D-01 WtEn= 1.54D-02
 Coeff-Com:  0.100D+01
 Coeff-En:   0.100D+01
 Coeff:      0.100D+01
 Gap=     0.703 Goal=   None    Shift=    0.000
 GapD=    0.703 DampG=2.000 DampE=1.000 DampFc=2.0000 IDamp=-1.
 RMSDP=4.46D-04 MaxDP=1.78D-03              OVMax= 1.99D-03

 Cycle   2  Pass 1  IDiag  1:
 E= -75.9853528381420     Delta-E=       -0.000038342336 Rises=F Damp=F
 DIIS: error= 6.91D-04 at cycle   2 NSaved=   2.
 NSaved= 2 IEnMin= 2 EnMin= -75.9853528381420     IErMin= 2 ErrMin= 6.91D-04
 ErrMax= 6.91D-04 EMaxC= 1.00D-01 BMatC= 5.96D-06 BMatP= 3.90D-05
 IDIUse=3 WtCom= 9.93D-01 WtEn= 6.91D-03
 Coeff-Com:  0.155D+00 0.845D+00
 Coeff-En:   0.000D+00 0.100D+01
 Coeff:      0.154D+00 0.846D+00
 Gap=     0.705 Goal=   None    Shift=    0.000
 RMSDP=1.44D-04 MaxDP=8.64D-04 DE=-3.83D-05 OVMax= 4.55D-04

 Cycle   3  Pass 1  IDiag  1:
 E= -75.9853573849748     Delta-E=       -0.000004546833 Rises=F Damp=F
 DIIS: error= 2.21D-04 at cycle   3 NSaved=   3.
 NSaved= 3 IEnMin= 3 EnMin= -75.9853573849748     IErMin= 3 ErrMin= 2.21D-04
 ErrMax= 2.21D-04 EMaxC= 1.00D-01 BMatC= 6.34D-07 BMatP= 5.96D-06
 IDIUse=3 WtCom= 9.98D-01 WtEn= 2.21D-03
 Coeff-Com: -0.928D-01 0.136D+00 0.957D+00
 Coeff-En:   0.000D+00 0.000D+00 0.100D+01
 Coeff:     -0.926D-01 0.136D+00 0.957D+00
 Gap=     0.705 Goal=   None    Shift=    0.000
 RMSDP=6.51D-05 MaxDP=2.58D-04 DE=-4.55D-06 OVMax= 4.27D-04

 Cycle   4  Pass 1  IDiag  1:
 E= -75.9853581752814     Delta-E=       -0.000000790307 Rises=F Damp=F
 DIIS: error= 4.12D-05 at cycle   4 NSaved=   4.
 NSaved= 4 IEnMin= 4 EnMin= -75.9853581752814     IErMin= 4 ErrMin= 4.12D-05
 ErrMax= 4.12D-05 EMaxC= 1.00D-01 BMatC= 1.83D-08 BMatP= 6.34D-07
 IDIUse=1 WtCom= 1.00D+00 WtEn= 0.00D+00
 Coeff-Com:  0.397D-01-0.977D-01-0.405D+00 0.146D+01
 Coeff:      0.397D-01-0.977D-01-0.405D+00 0.146D+01
 Gap=     0.705 Goal=   None    Shift=    0.000
 RMSDP=2.57D-05 MaxDP=8.15D-05 DE=-7.90D-07 OVMax= 1.77D-04

 Cycle   5  Pass 1  IDiag  1:
 E= -75.9853582272398     Delta-E=       -0.000000051958 Rises=F Damp=F
 DIIS: error= 6.51D-06 at cycle   5 NSaved=   5.
 NSaved= 5 IEnMin= 5 EnMin= -75.9853582272398     IErMin= 5 ErrMin= 6.51D-06
 ErrMax= 6.51D-06 EMaxC= 1.00D-01 BMatC= 4.55D-10 BMatP= 1.83D-08
 IDIUse=1 WtCom= 1.00D+00 WtEn= 0.00D+00
 Coeff-Com: -0.757D-02 0.193D-01 0.810D-01-0.400D+00 0.131D+01
 Coeff:     -0.757D-02 0.193D-01 0.810D-01-0.400D+00 0.131D+01
 Gap=     0.705 Goal=   None    Shift=    0.000
 RMSDP=4.37D-06 MaxDP=1.20D-05 DE=-5.20D-08 OVMax= 2.84D-05

 Cycle   6  Pass 1  IDiag  1:
 E= -75.9853582285959     Delta-E=       -0.000000001356 Rises=F Damp=F
 DIIS: error= 1.46D-06 at cycle   6 NSaved=   6.
 NSaved= 6 IEnMin= 6 EnMin= -75.9853582285959     IErMin= 6 ErrMin= 1.46D-06
 ErrMax= 1.46D-06 EMaxC= 1.00D-01 BMatC= 1.97D-11 BMatP= 4.55D-10
 IDIUse=1 WtCom= 1.00D+00 WtEn= 0.00D+00
 Coeff-Com:  0.154D-02-0.392D-02-0.177D-01 0.113D+00-0.559D+00 0.147D+01
 Coeff:      0.154D-02-0.392D-02-0.177D-01 0.113D+00-0.559D+00 0.147D+01
 Gap=     0.705 Goal=   None    Shift=    0.000
 RMSDP=6.99D-07 MaxDP=3.33D-06 DE=-1.36D-09 OVMax= 3.53D-06

 Cycle   7  Pass 1  IDiag  1:
 E= -75.9853582286446     Delta-E=       -0.000000000049 Rises=F Damp=F
 DIIS: error= 9.96D-08 at cycle   7 NSaved=   7.
 NSaved= 7 IEnMin= 7 EnMin= -75.9853582286446     IErMin= 7 ErrMin= 9.96D-08
 ErrMax= 9.96D-08 EMaxC= 1.00D-01 BMatC= 1.34D-13 BMatP= 1.97D-11
 IDIUse=1 WtCom= 1.00D+00 WtEn= 0.00D+00
 Coeff-Com: -0.386D-03 0.982D-03 0.446D-02-0.297D-01 0.156D+00-0.449D+00
 Coeff-Com:  0.132D+01
 Coeff:     -0.386D-03 0.982D-03 0.446D-02-0.297D-01 0.156D+00-0.449D+00
 Coeff:      0.132D+01
 Gap=     0.705 Goal=   None    Shift=    0.000
 RMSDP=5.09D-08 MaxDP=1.93D-07 DE=-4.87D-11 OVMax= 2.61D-07

 Cycle   8  Pass 1  IDiag  1:
 E= -75.9853582286450     Delta-E=        0.000000000000 Rises=F Damp=F
 DIIS: error= 1.46D-08 at cycle   8 NSaved=   8.
 NSaved= 8 IEnMin= 8 EnMin= -75.9853582286450     IErMin= 8 ErrMin= 1.46D-08
 ErrMax= 1.46D-08 EMaxC= 1.00D-01 BMatC= 2.38D-15 BMatP= 1.34D-13
 IDIUse=1 WtCom= 1.00D+00 WtEn= 0.00D+00
 Coeff-Com:  0.896D-04-0.233D-03-0.102D-02 0.684D-02-0.360D-01 0.105D+00
 Coeff-Com: -0.373D+00 0.130D+01
 Coeff:      0.896D-04-0.233D-03-0.102D-02 0.684D-02-0.360D-01 0.105D+00
 Coeff:     -0.373D+00 0.130D+01
 Gap=     0.705 Goal=   None    Shift=    0.000
 RMSDP=8.28D-09 MaxDP=2.61D-08 DE=-3.69D-13 OVMax= 4.48D-08

 SCF Done:  E(RHF) =  -75.9853582286     A.U. after    8 cycles
             Convg  =    0.8281D-08             -V/T =  1.9996
 KE= 7.601280401853D+01 PE=-1.991249293200D+02 EE= 3.787795849301D+01
 Leave Link  502 at Fri Feb 15 10:54:30 2019, MaxMem=   33554432 cpu:       0.0
 (Enter D:\G09W\l701.exe)
 Compute integral first derivatives.
 ... and contract with generalized density number  0.
 Leave Link  701 at Fri Feb 15 10:54:30 2019, MaxMem=   33554432 cpu:       0.0
 (Enter D:\G09W\l702.exe)
 L702 exits ... SP integral derivatives will be done elsewhere.
 Leave Link  702 at Fri Feb 15 10:54:31 2019, MaxMem=   33554432 cpu:       0.0
 (Enter D:\G09W\l703.exe)
 Compute integral first derivatives, UseDBF=F ICtDFT=           0.
 Integral derivatives from FoFDir, PRISM(SPDF).
 Calling FoFJK, ICntrl=      2127 FMM=F ISym2X=0 I1Cent= 0 IOpClX= 0 NMat=1 NMatS=1 NMatT=0.
 FoFCou: FMM=F IPFlag=           0 FMFlag=      100000 FMFlg1=         800
         NFxFlg=           0 DoJE=F BraDBF=F KetDBF=F FulRan=T
         Omega=  0.000000  0.000000  1.000000  0.000000  0.000000 ICntrl=    2127 IOpCl=  0
         NMat0=    1 NMatS0=    1 NMatT0=    0 NMatD0=    1 NMtDS0=    0 NMtDT0=    0
         I1Cent=           0 NGrid=           0.
 Symmetry not used in FoFCou.
 Leave Link  703 at Fri Feb 15 10:54:31 2019, MaxMem=   33554432 cpu:       0.0
 (Enter D:\G09W\l716.exe)
 Dipole        =-2.22044605D-15 6.94988505D-01 6.94988505D-01
 -------------------------------------------------------------------
 Center     Atomic                   Forces (Hartrees/Bohr)
 Number     Number              X              Y              Z
 -------------------------------------------------------------------
      1        8           0.000000000    0.000111199    0.000111199
      2        1           0.000000000   -0.000466566    0.000355367
      3        1           0.000000000    0.000355367   -0.000466566
 -------------------------------------------------------------------
 Cartesian Forces:  Max     0.000466566 RMS     0.000281399
 Leave Link  716 at Fri Feb 15 10:54:31 2019, MaxMem=   33554432 cpu:       0.0
 (Enter D:\G09W\l103.exe)

 GradGradGradGradGradGradGradGradGradGradGradGradGradGradGradGradGradGrad
 Berny optimization.
 Using GEDIIS/GDIIS optimizer.
 Internal  Forces:  Max     0.000525073 RMS     0.000507095
 Search for a local minimum.
 Step number   4 out of a maximum of   20
 All quantities printed in internal units (Hartrees-Bohrs-Radians)
 RMS Force = .50709D-03 SwitMx=.10000D-02 MixMth= 2
 Mixed Optimization -- En-DIIS/RFO-DIIS
 Update second derivatives using D2CorX and points    1    2    3    4
 DE= -1.04D-04 DEPred=-1.16D-04 R= 8.98D-01
 SS=  1.41D+00  RLast= 2.00D-02 DXNew= 8.4853D-01 5.9974D-02
 Trust test= 8.98D-01 RLast= 2.00D-02 DXMaxT set to 5.05D-01
 The second derivative matrix:
                          R1        R2        A1
           R1           0.53794
           R2           0.06106   0.53794
           A1           0.03831   0.03831   0.18748
 ITU=  1  1  1  0
 Use linear search instead of GDIIS.
     Eigenvalues ---    0.18046   0.47688   0.60601
 RFO step:  Lambda=-8.03758278D-07 EMin= 1.80462227D-01
 Quartic linear search produced a step of -0.06587.
 Iteration  1 RMS(Cart)=  0.00152803 RMS(Int)=  0.00000103
 Iteration  2 RMS(Cart)=  0.00000073 RMS(Int)=  0.00000000
 Variable       Old X    -DE/DX   Delta X   Delta X   Delta X     New X
                                 (Linear)    (Quad)   (Total)
    R1        1.79529  -0.00053  -0.00093   0.00017  -0.00076   1.79453
    R2        1.79529  -0.00053  -0.00093   0.00017  -0.00076   1.79453
    A1        1.94918  -0.00047  -0.00010  -0.00210  -0.00220   1.94698
         Item               Value     Threshold  Converged?
 Maximum Force            0.000525     0.000002     NO 
 RMS     Force            0.000507     0.000001     NO 
 Maximum Displacement     0.001513     0.000006     NO 
 RMS     Displacement     0.001528     0.000004     NO 
 Predicted change in Energy=-9.023408D-07
 GradGradGradGradGradGradGradGradGradGradGradGradGradGradGradGradGradGrad

 Leave Link  103 at Fri Feb 15 10:54:31 2019, MaxMem=   33554432 cpu:       0.0
 (Enter D:\G09W\l202.exe)
                          Input orientation:                          
 ---------------------------------------------------------------------
 Center     Atomic      Atomic             Coordinates (Angstroms)
 Number     Number       Type             X           Y           Z
 ---------------------------------------------------------------------
      1          8           0        1.000000    0.081563    0.081563
      2          1           0        1.000000    1.014437   -0.096001
      3          1           0        1.000000   -0.096001    1.014437
 ---------------------------------------------------------------------
                    Distance matrix (angstroms):
                    1          2          3
     1  O    0.000000
     2  H    0.949623   0.000000
     3  H    0.949623   1.570397   0.000000
 Symmetry turned off by external request.
 Stoichiometry    H2O
 Framework group  C2V[C2(O),SGV(H2)]
 Deg. of freedom     2
 Full point group                 C2V     NOp   4
 Rotational constants (GHZ):    989.7527421    406.6711297    288.2390325
 Leave Link  202 at Fri Feb 15 10:54:31 2019, MaxMem=   33554432 cpu:       0.0
 (Enter D:\G09W\l301.exe)
 Standard basis: 6-31G (6D, 7F)
 Ernie: Thresh=  0.10000D-02 Tol=  0.10000D-05 Strict=F.
 Integral buffers will be    262144 words long.
 Raffenetti 1 integral format.
 Two-electron integral symmetry is turned off.
    13 basis functions,    30 primitive gaussians,    13 cartesian basis functions
     5 alpha electrons        5 beta electrons
       nuclear repulsion energy         9.2529702468 Hartrees.
 IExCor=    0 DFT=F Ex=HF Corr=None ExCW=0 ScaHFX=  1.000000
 ScaDFX=  1.000000  1.000000  1.000000  1.000000 ScalE2=  1.000000  1.000000
 IRadAn=      0 IRanWt=     -1 IRanGd=            0 ICorTp=0
 NAtoms=    3 NActive=    3 NUniq=    3 SFac= 1.00D+00 NAtFMM=   50 NAOKFM=F Big=F
 Leave Link  301 at Fri Feb 15 10:54:31 2019, MaxMem=   33554432 cpu:       0.0
 (Enter D:\G09W\l302.exe)
 NPDir=0 NMtPBC=     1 NCelOv=     1 NCel=       1 NClECP=     1 NCelD=      1
         NCelK=      1 NCelE2=     1 NClLst=     1 CellRange=     0.0.
 One-electron integrals computed using PRISM.
 NBasis=    13 RedAO= T  NBF=    13
 NBsUse=    13 1.00D-06 NBFU=    13
 Leave Link  302 at Fri Feb 15 10:54:31 2019, MaxMem=   33554432 cpu:       0.0
 (Enter D:\G09W\l303.exe)
 DipDrv:  MaxL=1.
 Leave Link  303 at Fri Feb 15 10:54:31 2019, MaxMem=   33554432 cpu:       0.0
 (Enter D:\G09W\l401.exe)
 Initial guess read from the read-write file.
 B after Tr=     0.000000    0.000000    0.000000
         Rot=    1.000000    0.000000    0.000000    0.000000 Ang=   0.00 deg.
 Guess basis will be translated and rotated to current coordinates.
 Leave Link  401 at Fri Feb 15 10:54:31 2019, MaxMem=   33554432 cpu:       0.0
 (Enter D:\G09W\l502.exe)
 Closed shell SCF:
 Requested convergence on RMS density matrix=1.00D-08 within 128 cycles.
 Requested convergence on MAX density matrix=1.00D-06.
 Requested convergence on             energy=1.00D-06.
 No special actions if energy rises.
 Using DIIS extrapolation, IDIIS=  1040.
 Two-electron integral symmetry not used.
 Keep R1 ints in memory in canonical form, NReq=823903.
 IEnd=       19703 IEndB=       19703 NGot=    33554432 MDV=    33547618
 LenX=    33547618 LenY=    33546736
 Symmetry not used in FoFDir.
 MinBra= 0 MaxBra= 1 Meth= 1.
 IRaf=       0 NMat=   1 IRICut=       1 DoRegI=T DoRafI=F ISym2E= 0 JSym2E=0.

 Cycle   1  Pass 1  IDiag  1:
 E= -75.9853589551449    
 DIIS: error= 1.27D-04 at cycle   1 NSaved=   1.
 NSaved= 1 IEnMin= 1 EnMin= -75.9853589551449     IErMin= 1 ErrMin= 1.27D-04
 ErrMax= 1.27D-04 EMaxC= 1.00D-01 BMatC= 1.81D-07 BMatP= 1.81D-07
 IDIUse=3 WtCom= 9.99D-01 WtEn= 1.27D-03
 Coeff-Com:  0.100D+01
 Coeff-En:   0.100D+01
 Coeff:      0.100D+01
 Gap=     0.705 Goal=   None    Shift=    0.000
 RMSDP=3.26D-05 MaxDP=1.06D-04              OVMax= 6.00D-05

 Cycle   2  Pass 1  IDiag  1:
 E= -75.9853591532402     Delta-E=       -0.000000198095 Rises=F Damp=F
 DIIS: error= 2.48D-05 at cycle   2 NSaved=   2.
 NSaved= 2 IEnMin= 2 EnMin= -75.9853591532402     IErMin= 2 ErrMin= 2.48D-05
 ErrMax= 2.48D-05 EMaxC= 1.00D-01 BMatC= 1.38D-08 BMatP= 1.81D-07
 IDIUse=1 WtCom= 1.00D+00 WtEn= 0.00D+00
 Coeff-Com: -0.160D-01 0.102D+01
 Coeff:     -0.160D-01 0.102D+01
 Gap=     0.705 Goal=   None    Shift=    0.000
 RMSDP=1.03D-05 MaxDP=4.22D-05 DE=-1.98D-07 OVMax= 3.17D-05

 Cycle   3  Pass 1  IDiag  1:
 E= -75.9853591649888     Delta-E=       -0.000000011749 Rises=F Damp=F
 DIIS: error= 1.38D-05 at cycle   3 NSaved=   3.
 NSaved= 3 IEnMin= 3 EnMin= -75.9853591649888     IErMin= 3 ErrMin= 1.38D-05
 ErrMax= 1.38D-05 EMaxC= 1.00D-01 BMatC= 3.41D-09 BMatP= 1.38D-08
 IDIUse=1 WtCom= 1.00D+00 WtEn= 0.00D+00
 Coeff-Com: -0.911D-01 0.320D+00 0.771D+00
 Coeff:     -0.911D-01 0.320D+00 0.771D+00
 Gap=     0.705 Goal=   None    Shift=    0.000
 RMSDP=2.79D-06 MaxDP=1.21D-05 DE=-1.17D-08 OVMax= 8.11D-06

 Cycle   4  Pass 1  IDiag  1:
 E= -75.9853591674826     Delta-E=       -0.000000002494 Rises=F Damp=F
 DIIS: error= 6.55D-07 at cycle   4 NSaved=   4.
 NSaved= 4 IEnMin= 4 EnMin= -75.9853591674826     IErMin= 4 ErrMin= 6.55D-07
 ErrMax= 6.55D-07 EMaxC= 1.00D-01 BMatC= 6.83D-12 BMatP= 3.41D-09
 IDIUse=1 WtCom= 1.00D+00 WtEn= 0.00D+00
 Coeff-Com:  0.161D-01-0.593D-01-0.156D+00 0.120D+01
 Coeff:      0.161D-01-0.593D-01-0.156D+00 0.120D+01
 Gap=     0.705 Goal=   None    Shift=    0.000
 RMSDP=3.39D-07 MaxDP=9.85D-07 DE=-2.49D-09 OVMax= 1.94D-06

 Cycle   5  Pass 1  IDiag  1:
 E= -75.9853591674961     Delta-E=       -0.000000000014 Rises=F Damp=F
 DIIS: error= 2.24D-07 at cycle   5 NSaved=   5.
 NSaved= 5 IEnMin= 5 EnMin= -75.9853591674961     IErMin= 5 ErrMin= 2.24D-07
 ErrMax= 2.24D-07 EMaxC= 1.00D-01 BMatC= 4.44D-13 BMatP= 6.83D-12
 IDIUse=1 WtCom= 1.00D+00 WtEn= 0.00D+00
 Coeff-Com: -0.396D-02 0.156D-01 0.368D-01-0.456D+00 0.141D+01
 Coeff:     -0.396D-02 0.156D-01 0.368D-01-0.456D+00 0.141D+01
 Gap=     0.705 Goal=   None    Shift=    0.000
 RMSDP=1.26D-07 MaxDP=3.39D-07 DE=-1.35D-11 OVMax= 8.93D-07

 Cycle   6  Pass 1  IDiag  1:
 E= -75.9853591674975     Delta-E=       -0.000000000001 Rises=F Damp=F
 DIIS: error= 4.42D-08 at cycle   6 NSaved=   6.
 NSaved= 6 IEnMin= 6 EnMin= -75.9853591674975     IErMin= 6 ErrMin= 4.42D-08
 ErrMax= 4.42D-08 EMaxC= 1.00D-01 BMatC= 1.82D-14 BMatP= 4.44D-13
 IDIUse=1 WtCom= 1.00D+00 WtEn= 0.00D+00
 Coeff-Com:  0.930D-03-0.382D-02-0.867D-02 0.140D+00-0.618D+00 0.149D+01
 Coeff:      0.930D-03-0.382D-02-0.867D-02 0.140D+00-0.618D+00 0.149D+01
 Gap=     0.705 Goal=   None    Shift=    0.000
 RMSDP=3.31D-08 MaxDP=9.31D-08 DE=-1.35D-12 OVMax= 2.28D-07

 Cycle   7  Pass 1  IDiag  1:
 E= -75.9853591674975     Delta-E=        0.000000000000 Rises=F Damp=F
 DIIS: error= 3.83D-09 at cycle   7 NSaved=   7.
 NSaved= 7 IEnMin= 6 EnMin= -75.9853591674975     IErMin= 7 ErrMin= 3.83D-09
 ErrMax= 3.83D-09 EMaxC= 1.00D-01 BMatC= 1.62D-16 BMatP= 1.82D-14
 IDIUse=1 WtCom= 1.00D+00 WtEn= 0.00D+00
 Coeff-Com: -0.277D-03 0.113D-02 0.265D-02-0.429D-01 0.197D+00-0.517D+00
 Coeff-Com:  0.136D+01
 Coeff:     -0.277D-03 0.113D-02 0.265D-02-0.429D-01 0.197D+00-0.517D+00
 Coeff:      0.136D+01
 Gap=     0.705 Goal=   None    Shift=    0.000
 RMSDP=1.45D-09 MaxDP=5.73D-09 DE= 2.84D-14 OVMax= 5.00D-09

 SCF Done:  E(RHF) =  -75.9853591675     A.U. after    7 cycles
             Convg  =    0.1452D-08             -V/T =  1.9996
 KE= 7.601467534384D+01 PE=-1.991335036590D+02 EE= 3.788049890083D+01
 Leave Link  502 at Fri Feb 15 10:54:31 2019, MaxMem=   33554432 cpu:       0.0
 (Enter D:\G09W\l701.exe)
 Compute integral first derivatives.
 ... and contract with generalized density number  0.
 Leave Link  701 at Fri Feb 15 10:54:31 2019, MaxMem=   33554432 cpu:       0.0
 (Enter D:\G09W\l702.exe)
 L702 exits ... SP integral derivatives will be done elsewhere.
 Leave Link  702 at Fri Feb 15 10:54:31 2019, MaxMem=   33554432 cpu:       0.0
 (Enter D:\G09W\l703.exe)
 Compute integral first derivatives, UseDBF=F ICtDFT=           0.
 Integral derivatives from FoFDir, PRISM(SPDF).
 Calling FoFJK, ICntrl=      2127 FMM=F ISym2X=0 I1Cent= 0 IOpClX= 0 NMat=1 NMatS=1 NMatT=0.
 FoFCou: FMM=F IPFlag=           0 FMFlag=      100000 FMFlg1=         800
         NFxFlg=           0 DoJE=F BraDBF=F KetDBF=F FulRan=T
         Omega=  0.000000  0.000000  1.000000  0.000000  0.000000 ICntrl=    2127 IOpCl=  0
         NMat0=    1 NMatS0=    1 NMatT0=    0 NMatD0=    1 NMtDS0=    0 NMtDT0=    0
         I1Cent=           0 NGrid=           0.
 Symmetry not used in FoFCou.
 Leave Link  703 at Fri Feb 15 10:54:31 2019, MaxMem=   33554432 cpu:       0.0
 (Enter D:\G09W\l716.exe)
 Dipole        =-3.06421555D-14 6.95607423D-01 6.95607423D-01
 -------------------------------------------------------------------
 Center     Atomic                   Forces (Hartrees/Bohr)
 Number     Number              X              Y              Z
 -------------------------------------------------------------------
      1        8           0.000000000   -0.000018309   -0.000018309
      2        1           0.000000000    0.000005715    0.000012594
      3        1           0.000000000    0.000012594    0.000005715
 -------------------------------------------------------------------
 Cartesian Forces:  Max     0.000018309 RMS     0.000010817
 Leave Link  716 at Fri Feb 15 10:54:31 2019, MaxMem=   33554432 cpu:       0.0
 (Enter D:\G09W\l103.exe)

 GradGradGradGradGradGradGradGradGradGradGradGradGradGradGradGradGradGrad
 Berny optimization.
 Using GEDIIS/GDIIS optimizer.
 Internal  Forces:  Max     0.000024120 RMS     0.000014177
 Search for a local minimum.
 Step number   5 out of a maximum of   20
 All quantities printed in internal units (Hartrees-Bohrs-Radians)
 RMS Force = .14177D-04 SwitMx=.10000D-02 MixMth= 2
 Mixed Optimization -- En-DIIS/RFO-DIIS
 Swaping is turned off.
 Update second derivatives using D2CorX and points    2    3    4    5
 DE= -9.39D-07 DEPred=-9.02D-07 R= 1.04D+00
 Trust test= 1.04D+00 RLast= 2.45D-03 DXMaxT set to 5.05D-01
 The second derivative matrix:
                          R1        R2        A1
           R1           0.53725
           R2           0.06037   0.53725
           A1           0.03407   0.03407   0.17874
 ITU=  0  1  1  1
     Eigenvalues ---    0.17327   0.47688   0.60309
 En-DIIS/RFO-DIIS IScMMF=        0 using points:     5    4
 RFO step:  Lambda= 0.00000000D+00.
 DidBck=F Rises=F RFO-DIIS coefs:    1.02703   -0.02703
 Iteration  1 RMS(Cart)=  0.00007160 RMS(Int)=  0.00000000
 Iteration  2 RMS(Cart)=  0.00000000 RMS(Int)=  0.00000000
 Variable       Old X    -DE/DX   Delta X   Delta X   Delta X     New X
                                  (DIIS)     (GDIIS)  (Total)
    R1        1.79453   0.00000  -0.00002   0.00003   0.00001   1.79454
    R2        1.79453   0.00000  -0.00002   0.00003   0.00001   1.79454
    A1        1.94698  -0.00002  -0.00006  -0.00008  -0.00014   1.94684
         Item               Value     Threshold  Converged?
 Maximum Force            0.000024     0.000002     NO 
 RMS     Force            0.000014     0.000001     NO 
 Maximum Displacement     0.000068     0.000006     NO 
 RMS     Displacement     0.000072     0.000004     NO 
 Predicted change in Energy=-1.732937D-09
 GradGradGradGradGradGradGradGradGradGradGradGradGradGradGradGradGradGrad

 Leave Link  103 at Fri Feb 15 10:54:31 2019, MaxMem=   33554432 cpu:       0.0
 (Enter D:\G09W\l202.exe)
                          Input orientation:                          
 ---------------------------------------------------------------------
 Center     Atomic      Atomic             Coordinates (Angstroms)
 Number     Number       Type             X           Y           Z
 ---------------------------------------------------------------------
      1          8           0        1.000000    0.081535    0.081535
      2          1           0        1.000000    1.014429   -0.095964
      3          1           0        1.000000   -0.095964    1.014429
 ---------------------------------------------------------------------
                    Distance matrix (angstroms):
                    1          2          3
     1  O    0.000000
     2  H    0.949630   0.000000
     3  H    0.949630   1.570334   0.000000
 Symmetry turned off by external request.
 Stoichiometry    H2O
 Framework group  C2V[C2(O),SGV(H2)]
 Deg. of freedom     2
 Full point group                 C2V     NOp   4
 Rotational constants (GHZ):    989.5341498    406.7037864    288.2368936
 Leave Link  202 at Fri Feb 15 10:54:32 2019, MaxMem=   33554432 cpu:       0.0
 (Enter D:\G09W\l301.exe)
 Standard basis: 6-31G (6D, 7F)
 Ernie: Thresh=  0.10000D-02 Tol=  0.10000D-05 Strict=F.
 Integral buffers will be    262144 words long.
 Raffenetti 1 integral format.
 Two-electron integral symmetry is turned off.
    13 basis functions,    30 primitive gaussians,    13 cartesian basis functions
     5 alpha electrons        5 beta electrons
       nuclear repulsion energy         9.2529170060 Hartrees.
 IExCor=    0 DFT=F Ex=HF Corr=None ExCW=0 ScaHFX=  1.000000
 ScaDFX=  1.000000  1.000000  1.000000  1.000000 ScalE2=  1.000000  1.000000
 IRadAn=      0 IRanWt=     -1 IRanGd=            0 ICorTp=0
 NAtoms=    3 NActive=    3 NUniq=    3 SFac= 1.00D+00 NAtFMM=   50 NAOKFM=F Big=F
 Leave Link  301 at Fri Feb 15 10:54:32 2019, MaxMem=   33554432 cpu:       0.0
 (Enter D:\G09W\l302.exe)
 NPDir=0 NMtPBC=     1 NCelOv=     1 NCel=       1 NClECP=     1 NCelD=      1
         NCelK=      1 NCelE2=     1 NClLst=     1 CellRange=     0.0.
 One-electron integrals computed using PRISM.
 NBasis=    13 RedAO= T  NBF=    13
 NBsUse=    13 1.00D-06 NBFU=    13
 Leave Link  302 at Fri Feb 15 10:54:32 2019, MaxMem=   33554432 cpu:       0.0
 (Enter D:\G09W\l303.exe)
 DipDrv:  MaxL=1.
 Leave Link  303 at Fri Feb 15 10:54:32 2019, MaxMem=   33554432 cpu:       0.0
 (Enter D:\G09W\l401.exe)
 Initial guess read from the read-write file.
 B after Tr=     0.000000    0.000000    0.000000
         Rot=    1.000000    0.000000    0.000000    0.000000 Ang=   0.00 deg.
 Guess basis will be translated and rotated to current coordinates.
 Leave Link  401 at Fri Feb 15 10:54:32 2019, MaxMem=   33554432 cpu:       0.0
 (Enter D:\G09W\l502.exe)
 Closed shell SCF:
 Requested convergence on RMS density matrix=1.00D-08 within 128 cycles.
 Requested convergence on MAX density matrix=1.00D-06.
 Requested convergence on             energy=1.00D-06.
 No special actions if energy rises.
 Using DIIS extrapolation, IDIIS=  1040.
 Two-electron integral symmetry not used.
 Keep R1 ints in memory in canonical form, NReq=823903.
 IEnd=       19703 IEndB=       19703 NGot=    33554432 MDV=    33547618
 LenX=    33547618 LenY=    33546736
 Symmetry not used in FoFDir.
 MinBra= 0 MaxBra= 1 Meth= 1.
 IRaf=       0 NMat=   1 IRICut=       1 DoRegI=T DoRafI=F ISym2E= 0 JSym2E=0.

 Cycle   1  Pass 1  IDiag  1:
 E= -75.9853591685019    
 DIIS: error= 7.18D-06 at cycle   1 NSaved=   1.
 NSaved= 1 IEnMin= 1 EnMin= -75.9853591685019     IErMin= 1 ErrMin= 7.18D-06
 ErrMax= 7.18D-06 EMaxC= 1.00D-01 BMatC= 4.60D-10 BMatP= 4.60D-10
 IDIUse=1 WtCom= 1.00D+00 WtEn= 0.00D+00
 Coeff-Com:  0.100D+01
 Coeff:      0.100D+01
 Gap=     0.705 Goal=   None    Shift=    0.000
 RMSDP=2.13D-06 MaxDP=8.49D-06              OVMax= 6.94D-06

 Cycle   2  Pass 1  IDiag  1:
 E= -75.9853591692020     Delta-E=       -0.000000000700 Rises=F Damp=F
 DIIS: error= 1.85D-06 at cycle   2 NSaved=   2.
 NSaved= 2 IEnMin= 2 EnMin= -75.9853591692020     IErMin= 2 ErrMin= 1.85D-06
 ErrMax= 1.85D-06 EMaxC= 1.00D-01 BMatC= 4.73D-11 BMatP= 4.60D-10
 IDIUse=1 WtCom= 1.00D+00 WtEn= 0.00D+00
 Coeff-Com: -0.154D+00 0.115D+01
 Coeff:     -0.154D+00 0.115D+01
 Gap=     0.705 Goal=   None    Shift=    0.000
 RMSDP=7.25D-07 MaxDP=2.53D-06 DE=-7.00D-10 OVMax= 2.82D-06

 Cycle   3  Pass 1  IDiag  1:
 E= -75.9853591692684     Delta-E=       -0.000000000066 Rises=F Damp=F
 DIIS: error= 7.76D-07 at cycle   3 NSaved=   3.
 NSaved= 3 IEnMin= 3 EnMin= -75.9853591692684     IErMin= 3 ErrMin= 7.76D-07
 ErrMax= 7.76D-07 EMaxC= 1.00D-01 BMatC= 8.11D-12 BMatP= 4.73D-11
 IDIUse=1 WtCom= 1.00D+00 WtEn= 0.00D+00
 Coeff-Com: -0.116D+00 0.330D+00 0.786D+00
 Coeff:     -0.116D+00 0.330D+00 0.786D+00
 Gap=     0.705 Goal=   None    Shift=    0.000
 RMSDP=2.46D-07 MaxDP=1.07D-06 DE=-6.64D-11 OVMax= 1.45D-06

 Cycle   4  Pass 1  IDiag  1:
 E= -75.9853591692782     Delta-E=       -0.000000000010 Rises=F Damp=F
 DIIS: error= 1.77D-07 at cycle   4 NSaved=   4.
 NSaved= 4 IEnMin= 4 EnMin= -75.9853591692782     IErMin= 4 ErrMin= 1.77D-07
 ErrMax= 1.77D-07 EMaxC= 1.00D-01 BMatC= 3.87D-13 BMatP= 8.11D-12
 IDIUse=1 WtCom= 1.00D+00 WtEn= 0.00D+00
 Coeff-Com:  0.638D-01-0.236D+00-0.293D+00 0.147D+01
 Coeff:      0.638D-01-0.236D+00-0.293D+00 0.147D+01
 Gap=     0.705 Goal=   None    Shift=    0.000
 RMSDP=1.19D-07 MaxDP=3.39D-07 DE=-9.81D-12 OVMax= 8.30D-07

 Cycle   5  Pass 1  IDiag  1:
 E= -75.9853591692794     Delta-E=       -0.000000000001 Rises=F Damp=F
 DIIS: error= 2.42D-08 at cycle   5 NSaved=   5.
 NSaved= 5 IEnMin= 5 EnMin= -75.9853591692794     IErMin= 5 ErrMin= 2.42D-08
 ErrMax= 2.42D-08 EMaxC= 1.00D-01 BMatC= 6.60D-15 BMatP= 3.87D-13
 IDIUse=1 WtCom= 1.00D+00 WtEn= 0.00D+00
 Coeff-Com: -0.168D-01 0.648D-01 0.711D-01-0.462D+00 0.134D+01
 Coeff:     -0.168D-01 0.648D-01 0.711D-01-0.462D+00 0.134D+01
 Gap=     0.705 Goal=   None    Shift=    0.000
 RMSDP=1.54D-08 MaxDP=5.05D-08 DE=-1.17D-12 OVMax= 9.84D-08

 Cycle   6  Pass 1  IDiag  1:
 E= -75.9853591692792     Delta-E=        0.000000000000 Rises=F Damp=F
 DIIS: error= 4.78D-09 at cycle   6 NSaved=   6.
 NSaved= 6 IEnMin= 5 EnMin= -75.9853591692794     IErMin= 6 ErrMin= 4.78D-09
 ErrMax= 4.78D-09 EMaxC= 1.00D-01 BMatC= 2.48D-16 BMatP= 6.60D-15
 IDIUse=1 WtCom= 1.00D+00 WtEn= 0.00D+00
 Coeff-Com:  0.206D-02-0.824D-02-0.914D-02 0.735D-01-0.389D+00 0.133D+01
 Coeff:      0.206D-02-0.824D-02-0.914D-02 0.735D-01-0.389D+00 0.133D+01
 Gap=     0.705 Goal=   None    Shift=    0.000
 RMSDP=2.28D-09 MaxDP=1.08D-08 DE= 1.42D-13 OVMax= 1.19D-08

 SCF Done:  E(RHF) =  -75.9853591693     A.U. after    6 cycles
             Convg  =    0.2277D-08             -V/T =  1.9996
 KE= 7.601466060128D+01 PE=-1.991333548821D+02 EE= 3.788041810550D+01
 Leave Link  502 at Fri Feb 15 10:54:32 2019, MaxMem=   33554432 cpu:       0.0
 (Enter D:\G09W\l701.exe)
 Compute integral first derivatives.
 ... and contract with generalized density number  0.
 Leave Link  701 at Fri Feb 15 10:54:32 2019, MaxMem=   33554432 cpu:       0.0
 (Enter D:\G09W\l702.exe)
 L702 exits ... SP integral derivatives will be done elsewhere.
 Leave Link  702 at Fri Feb 15 10:54:32 2019, MaxMem=   33554432 cpu:       0.0
 (Enter D:\G09W\l703.exe)
 Compute integral first derivatives, UseDBF=F ICtDFT=           0.
 Integral derivatives from FoFDir, PRISM(SPDF).
 Calling FoFJK, ICntrl=      2127 FMM=F ISym2X=0 I1Cent= 0 IOpClX= 0 NMat=1 NMatS=1 NMatT=0.
 FoFCou: FMM=F IPFlag=           0 FMFlag=      100000 FMFlg1=         800
         NFxFlg=           0 DoJE=F BraDBF=F KetDBF=F FulRan=T
         Omega=  0.000000  0.000000  1.000000  0.000000  0.000000 ICntrl=    2127 IOpCl=  0
         NMat0=    1 NMatS0=    1 NMatT0=    0 NMatD0=    1 NMtDS0=    0 NMtDT0=    0
         I1Cent=           0 NGrid=           0.
 Symmetry not used in FoFCou.
 Leave Link  703 at Fri Feb 15 10:54:32 2019, MaxMem=   33554432 cpu:       0.0
 (Enter D:\G09W\l716.exe)
 Dipole        =-2.22044605D-15 6.95650676D-01 6.95650676D-01
 -------------------------------------------------------------------
 Center     Atomic                   Forces (Hartrees/Bohr)
 Number     Number              X              Y              Z
 -------------------------------------------------------------------
      1        8           0.000000000   -0.000001010   -0.000001010
      2        1           0.000000000    0.000000871    0.000000139
      3        1           0.000000000    0.000000139    0.000000871
 -------------------------------------------------------------------
 Cartesian Forces:  Max     0.000001010 RMS     0.000000632
 Leave Link  716 at Fri Feb 15 10:54:32 2019, MaxMem=   33554432 cpu:       0.0
 (Enter D:\G09W\l103.exe)

 GradGradGradGradGradGradGradGradGradGradGradGradGradGradGradGradGradGrad
 Berny optimization.
 Using GEDIIS/GDIIS optimizer.
 Internal  Forces:  Max     0.000000829 RMS     0.000000745
 Search for a local minimum.
 Step number   6 out of a maximum of   20
 All quantities printed in internal units (Hartrees-Bohrs-Radians)
 RMS Force = .74485D-06 SwitMx=.10000D-02 MixMth= 2
 Mixed Optimization -- En-DIIS/RFO-DIIS
 Swaping is turned off.
 Update second derivatives using D2CorX and points    3    4    5    6
 DE= -1.78D-09 DEPred=-1.73D-09 R= 1.03D+00
 Trust test= 1.03D+00 RLast= 1.41D-04 DXMaxT set to 5.05D-01
 The second derivative matrix:
                          R1        R2        A1
           R1           0.53396
           R2           0.05708   0.53396
           A1           0.03936   0.03936   0.17592
 ITU=  0  0  1  1
     Eigenvalues ---    0.16859   0.47688   0.59837
 En-DIIS/RFO-DIIS IScMMF=        0 using points:     6    5    4
 RFO step:  Lambda= 0.00000000D+00.
 DidBck=F Rises=F RFO-DIIS coefs:    1.04821   -0.04956    0.00135
 Iteration  1 RMS(Cart)=  0.00000182 RMS(Int)=  0.00000000
 Iteration  2 RMS(Cart)=  0.00000000 RMS(Int)=  0.00000000
 Variable       Old X    -DE/DX   Delta X   Delta X   Delta X     New X
                                  (DIIS)     (GDIIS)  (Total)
    R1        1.79454   0.00000   0.00000   0.00000   0.00000   1.79454
    R2        1.79454   0.00000   0.00000   0.00000   0.00000   1.79454
    A1        1.94684   0.00000   0.00000   0.00000   0.00000   1.94683
         Item               Value     Threshold  Converged?
 Maximum Force            0.000001     0.000002     YES
 RMS     Force            0.000001     0.000001     YES
 Maximum Displacement     0.000002     0.000006     YES
 RMS     Displacement     0.000002     0.000004     YES
 Predicted change in Energy=-2.392194D-12
 Optimization completed.
    -- Stationary point found.
                           ----------------------------
                           !   Optimized Parameters   !
                           ! (Angstroms and Degrees)  !
 --------------------------                            --------------------------
 ! Name  Definition              Value          Derivative Info.                !
 --------------------------------------------------------------------------------
 ! R1    R(1,2)                  0.9496         -DE/DX =    0.0                 !
 ! R2    R(1,3)                  0.9496         -DE/DX =    0.0                 !
 ! A1    A(2,1,3)              111.5456         -DE/DX =    0.0                 !
 --------------------------------------------------------------------------------
 GradGradGradGradGradGradGradGradGradGradGradGradGradGradGradGradGradGrad

 Largest change from initial coordinates is atom    1       0.097 Angstoms.
 Leave Link  103 at Fri Feb 15 10:54:32 2019, MaxMem=   33554432 cpu:       0.0
 (Enter D:\G09W\l202.exe)
                          Input orientation:                          
 ---------------------------------------------------------------------
 Center     Atomic      Atomic             Coordinates (Angstroms)
 Number     Number       Type             X           Y           Z
 ---------------------------------------------------------------------
      1          8           0        1.000000    0.081535    0.081535
      2          1           0        1.000000    1.014429   -0.095964
      3          1           0        1.000000   -0.095964    1.014429
 ---------------------------------------------------------------------
                    Distance matrix (angstroms):
                    1          2          3
     1  O    0.000000
     2  H    0.949630   0.000000
     3  H    0.949630   1.570334   0.000000
 Symmetry turned off by external request.
 Stoichiometry    H2O
 Framework group  C2V[C2(O),SGV(H2)]
 Deg. of freedom     2
 Full point group                 C2V     NOp   4
 Rotational constants (GHZ):    989.5341498    406.7037864    288.2368936
 Leave Link  202 at Fri Feb 15 10:54:32 2019, MaxMem=   33554432 cpu:       0.0
 (Enter D:\G09W\l601.exe)
 Copying SCF densities to generalized density rwf, IOpCl= 0 IROHF=0.

 **********************************************************************

            Population analysis using the SCF density.

 **********************************************************************

 Alpha  occ. eigenvalues --  -20.55348  -1.35253  -0.72638  -0.54824  -0.49830
 Alpha virt. eigenvalues --    0.20699   0.30291   1.10546   1.16122   1.16717
 Alpha virt. eigenvalues --    1.20464   1.38894   1.67610
          Condensed to atoms (all electrons):
              1          2          3
     1  O    8.283345   0.263948   0.263948
     2  H    0.263948   0.358348  -0.027916
     3  H    0.263948  -0.027916   0.358348
 Mulliken atomic charges:
              1
     1  O   -0.811240
     2  H    0.405620
     3  H    0.405620
 Sum of Mulliken atomic charges =   0.00000
 Mulliken charges with hydrogens summed into heavy atoms:
              1
     1  O    0.000000
 Sum of Mulliken charges with hydrogens summed into heavy atoms =   0.00000
 Electronic spatial extent (au):  <R**2>=             55.6124
 Charge=              0.0000 electrons
 Dipole moment (field-independent basis, Debye):
    X=              0.0000    Y=              1.7682    Z=              1.7682  Tot=              2.5006
 Quadrupole moment (field-independent basis, Debye-Ang):
   XX=             -7.1947   YY=             -4.5445   ZZ=             -4.5445
   XY=              1.7682   XZ=              1.7682   YZ=             -0.6469
 Traceless Quadrupole moment (field-independent basis, Debye-Ang):
   XX=             -1.7668   YY=              0.8834   ZZ=              0.8834
   XY=              1.7682   XZ=              1.7682   YZ=             -0.6469
 Octapole moment (field-independent basis, Debye-Ang**2):
  XXX=            -21.5840  YYY=             -0.3521  ZZZ=             -0.3521  XYY=             -4.5445
  XXY=              0.9410  XXZ=              0.9410  XZZ=             -4.5445  YZZ=             -0.9897
  YYZ=             -0.9897  XYZ=             -0.6469
 Hexadecapole moment (field-independent basis, Debye-Ang**3):
 XXXX=            -48.3364 YYYY=             -4.8528 ZZZZ=             -4.8528 XXXY=             -0.7134
 XXXZ=             -0.7134 YYYX=             -0.3521 YYYZ=             -0.2887 ZZZX=             -0.3521
 ZZZY=             -0.2887 XXYY=             -6.5904 XXZZ=             -6.5904 YYZZ=             -2.3060
 XXYZ=             -0.6645 YYXZ=             -0.9897 ZZXY=             -0.9897
 N-N= 9.252917006029D+00 E-N=-1.991333548636D+02  KE= 7.601466060128D+01
 No NMR shielding tensors so no spin-rotation constants.
 Leave Link  601 at Fri Feb 15 10:54:32 2019, MaxMem=   33554432 cpu:       0.0
 (Enter D:\G09W\l9999.exe)
 1|1|UNPC-DESKTOP-8BRL880|FOpt|RHF|6-31G|H2O1|AJZ34|15-Feb-2019|0||#p H
 F/6-31G nosymm opt(VeryTight)||HF Grad of H2O||0,1|O,1.,0.0815354471,0
 .0815354471|H,1.,1.0144290363,-0.0959644834|H,1.,-0.0959644834,1.01442
 90363||Version=IA32W-G09RevB.01|HF=-75.9853592|RMSD=2.277e-009|RMSF=6.
 319e-007|Dipole=0.,0.6956507,0.6956507|Quadrupole=-1.313574,0.656787,0
 .656787,1.3145893,1.3145893,-0.4809196|PG=C02V [C2(O1),SGV(H2)]||@


 COLLEGE PROFESSOR: SOMEONE WHO TALKS IN OTHER PEOPLE'S SLEEP.
 Job cpu time:  0 days  0 hours  0 minutes  5.0 seconds.
 File lengths (MBytes):  RWF=      5 Int=      0 D2E=      0 Chk=      1 Scr=      1
 Normal termination of Gaussian 09 at Fri Feb 15 10:54:32 2019.
