CH3 B3LYP Frequency                                                     
Freq      UB3LYP                                                      6-31G               
Number of atoms                            I                4
Info1-9                                    I   N=           9
          12          11           0           0           0         100
           6          18        -502
Charge                                     I                0
Multiplicity                               I                2
Number of electrons                        I                9
Number of alpha electrons                  I                5
Number of beta electrons                   I                4
Number of basis functions                  I               15
Number of independent functions            I               15
Number of point charges in /Mol/           I                0
Number of translation vectors              I                0
Atomic numbers                             I   N=           4
           6           1           1           1
Nuclear charges                            R   N=           4
  6.00000000E+00  1.00000000E+00  1.00000000E+00  1.00000000E+00
Current cartesian coordinates              R   N=          12
  0.00000000E+00  0.00000000E+00  0.00000000E+00  1.88972613E+00  0.00000000E+00
  0.00000000E+00  0.00000000E+00  3.77945227E+00  0.00000000E+00  0.00000000E+00
  0.00000000E+00  2.83458920E+00
Force Field                                I                0
Int Atom Types                             I   N=           4
           0           0           0           0
MM charges                                 R   N=           4
  0.00000000E+00  0.00000000E+00  0.00000000E+00  0.00000000E+00
Integer atomic weights                     I   N=           4
          12           1           1           1
Real atomic weights                        R   N=           4
  1.20000000E+01  1.00782504E+00  1.00782504E+00  1.00782504E+00
Atom fragment info                         I   N=           4
           0           0           0           0
Atom residue num                           I   N=           4
           0           0           0           0
Nuclear spins                              I   N=           4
           0           1           1           1
Nuclear ZEff                               R   N=           4
 -3.60000000E+00 -1.00000000E+00 -1.00000000E+00 -1.00000000E+00
Nuclear QMom                               R   N=           4
  0.00000000E+00  0.00000000E+00  0.00000000E+00  0.00000000E+00
Nuclear GFac                               R   N=           4
  0.00000000E+00  2.79284600E+00  2.79284600E+00  2.79284600E+00
MicOpt                                     I   N=           4
          -1          -1          -1          -1
Number of contracted shells                I                9
Number of primitive shells                 I               22
Pure/Cartesian d shells                    I                1
Pure/Cartesian f shells                    I                0
Highest angular momentum                   I                1
Largest degree of contraction              I                6
Shell types                                I   N=           9
           0          -1          -1           0           0           0
           0           0           0
Number of primitives per shell             I   N=           9
           6           3           1           3           1           3
           1           3           1
Shell to atom map                          I   N=           9
           1           1           1           2           2           3
           3           4           4
Primitive exponents                        R   N=          22
  3.04752488E+03  4.57369518E+02  1.03948685E+02  2.92101553E+01  9.28666296E+00
  3.16392696E+00  7.86827235E+00  1.88128854E+00  5.44249258E-01  1.68714478E-01
  1.87311370E+01  2.82539436E+00  6.40121692E-01  1.61277759E-01  1.87311370E+01
  2.82539436E+00  6.40121692E-01  1.61277759E-01  1.87311370E+01  2.82539436E+00
  6.40121692E-01  1.61277759E-01
Contraction coefficients                   R   N=          22
  1.83473713E-03  1.40373228E-02  6.88426223E-02  2.32184443E-01  4.67941348E-01
  3.62311985E-01 -1.19332420E-01 -1.60854152E-01  1.14345644E+00  1.00000000E+00
  3.34946043E-02  2.34726953E-01  8.13757326E-01  1.00000000E+00  3.34946043E-02
  2.34726953E-01  8.13757326E-01  1.00000000E+00  3.34946043E-02  2.34726953E-01
  8.13757326E-01  1.00000000E+00
P(S=P) Contraction coefficients            R   N=          22
  0.00000000E+00  0.00000000E+00  0.00000000E+00  0.00000000E+00  0.00000000E+00
  0.00000000E+00  6.89990666E-02  3.16423961E-01  7.44308291E-01  1.00000000E+00
  0.00000000E+00  0.00000000E+00  0.00000000E+00  0.00000000E+00  0.00000000E+00
  0.00000000E+00  0.00000000E+00  0.00000000E+00  0.00000000E+00  0.00000000E+00
  0.00000000E+00  0.00000000E+00
Coordinates of each shell                  R   N=          27
  0.00000000E+00  0.00000000E+00  0.00000000E+00  0.00000000E+00  0.00000000E+00
  0.00000000E+00  0.00000000E+00  0.00000000E+00  0.00000000E+00  1.88972613E+00
  0.00000000E+00  0.00000000E+00  1.88972613E+00  0.00000000E+00  0.00000000E+00
  0.00000000E+00  3.77945227E+00  0.00000000E+00  0.00000000E+00  3.77945227E+00
  0.00000000E+00  0.00000000E+00  0.00000000E+00  2.83458920E+00  0.00000000E+00
  0.00000000E+00  2.83458920E+00
Constraint Structure                       R   N=          12
  0.00000000E+00  0.00000000E+00  0.00000000E+00  1.88972613E+00  0.00000000E+00
  0.00000000E+00  0.00000000E+00  3.77945227E+00  0.00000000E+00  0.00000000E+00
  0.00000000E+00  2.83458920E+00
Num ILSW                                   I              100
ILSW                                       I   N=         100
           1           1           0           0           2           0
           0           0           0           0         402          -1
       99590           0           0           0           0           0
           0           0           0           0           1           0
           1           1           0           0           0           0
           0           0      100000           0          -1           0
           0           0           0           0           0           0
           0           0           0           1           0           0
           0           0           1           0           0           0
           0           0           4          40           0           0
           0           0           5           0           0           0
           0           0           0           0           0           0
           0           0           0           0           0           0
           0           0           0           0           0           0
           0           0           0           0           0           0
           0           0           0           0           0           0
           0           0           0           0
Num RLSW                                   I               40
RLSW                                       R   N=          40
  8.00000000E-01  7.20000000E-01  1.00000000E+00  8.10000000E-01  2.00000000E-01
  0.00000000E+00  0.00000000E+00  1.00000000E+00  0.00000000E+00  0.00000000E+00
  0.00000000E+00  0.00000000E+00  1.00000000E+00  0.00000000E+00  0.00000000E+00
  0.00000000E+00  0.00000000E+00  1.00000000E+00  0.00000000E+00  0.00000000E+00
  0.00000000E+00  0.00000000E+00  1.00000000E+00  0.00000000E+00  0.00000000E+00
  0.00000000E+00  0.00000000E+00  1.00000000E+00  0.00000000E+00  0.00000000E+00
  0.00000000E+00  0.00000000E+00  1.00000000E+00  0.00000000E+00  0.00000000E+00
  0.00000000E+00  0.00000000E+00  0.00000000E+00  1.00000000E+00  1.00000000E+00
MxBond                                     I                1
NBond                                      I   N=           4
           1           1           0           0
IBond                                      I   N=           4
           2           1           0           0
RBond                                      R   N=           4
  1.00000000E+00  1.00000000E+00  0.00000000E+00  0.00000000E+00
Virial Ratio                               R      2.012073702751534E+00
SCF Energy                                 R     -3.960377561770709E+01
Total Energy                               R     -3.960377561770709E+01
S**2                                       R      8.572350290506225E-01
S**2 after annihilation                    R      7.501266478592075E-01
RMS Force                                  R      5.952877079396503E-02
RMS Density                                R      5.020930966909013E-09
External E-field                           R   N=          35
  0.00000000E+00  0.00000000E+00  0.00000000E+00  0.00000000E+00  0.00000000E+00
  0.00000000E+00  0.00000000E+00  0.00000000E+00  0.00000000E+00  0.00000000E+00
  0.00000000E+00  0.00000000E+00  0.00000000E+00  0.00000000E+00  0.00000000E+00
  0.00000000E+00  0.00000000E+00  0.00000000E+00  0.00000000E+00  0.00000000E+00
  0.00000000E+00  0.00000000E+00  0.00000000E+00  0.00000000E+00  0.00000000E+00
  0.00000000E+00  0.00000000E+00  0.00000000E+00  0.00000000E+00  0.00000000E+00
  0.00000000E+00  0.00000000E+00  0.00000000E+00  0.00000000E+00  0.00000000E+00
IOpCl                                      I                1
IROHF                                      I                0
Alpha Orbital Energies                     R   N=          15
 -1.02856816E+01 -6.79067812E-01 -3.65413203E-01 -3.10794437E-01 -3.08459267E-01
 -7.98671151E-02  1.74989442E-02  1.58517943E-01  5.14221404E-01  5.43306213E-01
  5.98255797E-01  7.26571854E-01  8.04176334E-01  9.27223141E-01  1.01129011E+00
Beta Orbital Energies                      R   N=          15
 -1.02770924E+01 -6.62465389E-01 -3.51083978E-01 -2.78928718E-01 -1.56409187E-01
 -4.31865115E-02  2.92081950E-02  1.65769188E-01  5.33516883E-01  5.85736883E-01
  5.95483613E-01  7.47110671E-01  8.65750274E-01  9.37079677E-01  1.02058232E+00
Alpha MO coefficients                      R   N=         225
  9.95268907E-01  3.29545786E-02  1.82653901E-03 -1.69066166E-04  8.10461189E-04
 -1.97759065E-02 -4.56716677E-03 -7.45736819E-04 -2.11760842E-03 -1.28467122E-03
  7.86096374E-03  1.46265840E-04  1.50500281E-03  3.13850661E-04  2.72489277E-03
 -1.93553310E-01  3.95275892E-01  1.74024204E-01 -2.92931130E-02  2.58344096E-02
  3.70727262E-01  4.15347221E-02 -6.38009800E-03  2.08136800E-02  2.48803663E-01
  8.29583109E-02  3.31505884E-02  2.41438674E-02  8.12615163E-02  3.59693020E-02
  5.82096787E-02 -9.70674213E-02  4.20449216E-01  3.48707224E-02 -1.84281114E-01
 -3.02355328E-01  1.50949692E-01  2.32685168E-02 -9.34707023E-02  2.44551961E-01
  2.52319425E-01 -6.42940684E-02 -9.71605241E-02 -1.93020398E-01 -2.41105721E-01
  6.23200539E-02 -1.42584738E-01  1.45380007E-01  3.12947005E-01  1.51989478E-01
 -2.52697832E-01  8.03589651E-02  2.22895169E-01  9.84944109E-02  2.89968005E-02
  5.64854946E-02  2.96778425E-01  4.43894592E-01  5.14314665E-02  7.65764545E-02
  6.30466320E-02 -1.27547879E-01  2.06498517E-01 -7.68045925E-03  3.70545664E-01
 -2.70127718E-01  1.16276390E-01 -3.18547005E-03  2.36810860E-01  6.97916680E-02
  6.72128566E-02 -1.84696888E-01 -2.97328227E-01  2.05360618E-01  2.66455494E-01
  5.38609244E-02 -9.55898472E-02  7.88956748E-02 -5.27905834E-01  4.19060603E-02
 -2.83923517E-01  5.22090648E-02 -5.36519208E-01  3.10088671E-02  1.93890923E-03
  8.99999587E-02  2.19024070E-01  5.42399478E-01  6.54601968E-03  5.75723776E-02
  6.83306994E-02 -1.15263595E-01  3.81777722E-02  2.96347669E-02 -4.66556128E-01
 -6.16409086E-01 -2.24818403E-02  5.25373983E-03 -6.54597477E-01 -3.30678961E-02
  2.07657133E-01 -2.96830627E-02  3.14039739E-03  2.26428184E-01  1.06102681E+00
  7.68163688E-02 -1.03461137E-01 -3.65686286E-01  3.97377572E-02  8.38229782E-02
 -1.60501114E+00 -1.12866247E+00 -2.15992663E-02  2.95295491E-02  7.49094975E-02
  2.38395512E+00 -5.58819356E-02  1.75475469E-02 -7.62809876E-02 -3.32312173E-02
 -4.87098913E-02  3.02812691E-01 -7.63865671E-01 -3.83553686E-01 -2.63448616E-01
  2.96868788E-01  1.28302786E+00  4.80406624E-01  3.49676330E-01 -2.74034445E-01
 -4.25697787E-01  1.13919816E-01 -2.47209262E-01  1.53132268E-01 -2.91076516E-01
 -1.20728106E-02 -3.44970064E-01 -2.80384344E-01  5.92651802E-01  6.27045255E-01
  8.60952062E-01  9.71629899E-01 -6.77354495E-01 -7.52217023E-01 -4.06069081E-01
 -6.00848731E-01 -8.64520620E-02  2.20572262E-01  3.70707121E-02  1.41151184E-01
 -1.28841763E-02  3.02278416E-02 -1.01727288E-01  7.55935247E-01 -7.50943927E-01
  1.81821420E-01  1.39774370E-01 -8.98779558E-01  1.04271307E+00 -3.15087143E-04
 -7.55291477E-02 -2.51061562E-02  3.44995571E-01  5.96603188E-03 -5.20346914E-01
  1.39674811E-02 -9.13698807E-01  1.03621496E-01 -2.52032060E-02 -9.80854335E-02
  1.49897463E+00 -3.36020650E-02  1.97469934E-01  3.26439639E-01 -7.05598438E-02
 -6.15544726E-02  7.28683963E-01 -8.76262550E-01  8.13871779E-01 -1.19506005E+00
 -5.89669005E-03  4.24264868E-01 -1.96071999E-01  1.95119386E-01  1.62120078E-01
 -7.06007335E-01 -1.98148165E-02 -6.82002125E-02 -4.20561645E-01  3.30691974E-01
 -7.50335095E-02  1.02306324E+00 -9.01895690E-01 -5.90752913E-01  1.01590111E+00
 -3.57618703E-02 -9.78251903E-01  3.45058433E-01 -2.08064929E-01 -2.71062240E-01
  1.75682787E+00  4.04051313E-01  3.93779669E-01  5.76215032E-01 -8.81661979E-01
 -1.71621254E-01  1.56681672E-01 -5.56656865E-01 -7.63708057E-01  7.21623299E-02
  3.06402925E-02 -1.43614139E+00 -6.55940479E-01 -9.53467299E-02 -7.54998720E-02
  2.59224770E+00  1.17485645E+00  1.23000594E-01  1.94918960E-01  9.21428207E-01
 -2.25343729E+00 -2.12490260E-01  3.33340056E-02 -3.29845210E-01  4.16838777E-02
Beta MO coefficients                       R   N=         225
  9.95359548E-01  3.24466318E-02  2.09326748E-03  4.93194280E-04  1.06382680E-03
 -1.95772200E-02 -4.59018081E-03 -9.25984983E-04 -2.16651485E-03 -1.31900879E-03
  7.80834724E-03  1.41927490E-04  1.52057143E-03  3.01560219E-04  2.70462757E-03
 -1.88101946E-01  3.78389082E-01  1.97920085E-01  1.79885454E-02  4.48918333E-02
  3.56093575E-01  4.66019687E-02  9.76946561E-03  2.71399364E-02  2.57102909E-01
  9.40356270E-02  2.37126173E-02  1.59202914E-02  8.39018261E-02  3.90465469E-02
  4.31580357E-02 -5.94443776E-02  3.46619710E-01 -5.54653729E-02 -2.56658303E-01
 -2.50188275E-01  1.14609498E-01 -3.28794124E-02 -1.36551581E-01  2.24170458E-01
  2.48880937E-01 -3.96751633E-02 -6.31160094E-02 -2.33130184E-01 -3.01339388E-01
 -6.15471868E-02  1.08229627E-01 -1.99252878E-01  2.85420207E-01 -2.61316381E-01
  2.94546500E-01 -1.07537334E-01  2.09761713E-01 -1.76093554E-01 -8.29415357E-02
 -9.91709680E-02  1.61946126E-01  2.87922310E-01 -1.54225379E-01 -2.19856053E-01
 -1.02898856E-01  1.79173742E-01 -2.29937634E-01 -2.28758782E-01 -1.68417383E-01
  5.09768421E-01 -1.45506235E-01 -2.16242322E-01 -1.34747161E-01 -7.76507392E-02
 -1.64977488E-01 -1.84333411E-01 -3.74963898E-01 -8.49431491E-02 -1.69802554E-01
  2.22189816E-02 -6.67897336E-02 -3.14631659E-03 -4.80437908E-01 -9.42240945E-03
 -1.39168066E-01 -4.19358919E-02 -5.07125894E-01 -3.81591263E-02 -3.48802634E-02
  7.73383918E-02  2.33822967E-01  6.85701261E-01 -3.08968081E-02  5.20625025E-03
  6.35331383E-02 -1.08042931E-01  2.15393373E-02  1.94509888E-02 -4.73125903E-01
 -6.18227180E-01 -5.73973665E-02 -1.23477821E-02 -6.81807895E-01 -3.23857903E-02
  2.45490951E-01 -3.38166729E-02 -1.40838156E-02  2.10877805E-01  1.05596824E+00
  7.33433525E-02 -9.68710856E-02 -3.69150903E-01  4.49316512E-02  9.11968536E-02
 -1.58304751E+00 -1.13366511E+00 -1.24653550E-02  4.56096694E-02  6.26756606E-02
  2.38543321E+00 -5.35587622E-02 -1.29532893E-02 -7.79191551E-02 -5.68982332E-02
 -4.61738413E-02  1.22664282E-03 -7.61393256E-01  1.83642148E-01  1.37136383E-01
  8.10281280E-01  1.60225887E+00 -2.11512841E-01 -1.30530914E-01 -4.77993557E-01
 -7.16776029E-01  3.01700231E-02  7.43566835E-03  1.44950368E-01 -1.82776419E-01
 -3.05050856E-02  3.77124976E-01 -3.09995665E-01 -7.31302101E-01 -6.73220103E-01
 -2.48592665E-01  1.47870798E-01  8.24532155E-01  8.15562096E-01  9.06303558E-02
  1.22648908E-01  1.43057116E-01 -3.38785241E-01  1.23681707E-01 -3.96156885E-01
 -5.68996166E-03  7.78543104E-02 -1.90088621E-02  7.34613694E-01 -7.66525776E-01
 -7.99927670E-03 -4.79175969E-02 -8.95796933E-01  1.04123418E+00  6.39796551E-02
  2.56236336E-02 -2.39308143E-02  3.62313074E-01 -3.29641578E-02 -4.48840047E-01
  1.93894755E-02 -1.01771949E+00  1.68856393E-01 -6.30678144E-03 -1.18696183E-01
  1.64385615E+00 -3.45246437E-02  1.26988791E-01  4.10016203E-01 -1.36539600E-01
 -6.95236620E-02  3.73672093E-01 -5.02232502E-01  9.63941108E-01 -1.43766545E+00
  3.73582201E-03  1.23211308E-01 -2.26101487E-01  1.60064110E-01  1.38039762E-01
 -2.07568127E-01  1.80589958E-02 -9.03445216E-03 -3.25960700E-01  4.19329807E-01
 -2.20066945E-01  1.18739930E+00 -1.04159290E+00 -2.75875560E-01  5.95881610E-01
 -3.33841684E-02 -1.05120056E+00  3.19462663E-01 -1.76764257E-01 -2.62256616E-01
  1.88313422E+00  4.50729464E-01  3.84607903E-01  5.66640265E-01 -8.26090824E-01
 -2.77452137E-01  2.49282664E-01 -6.43125480E-01 -7.74413520E-01  8.46694848E-02
  3.16604182E-02 -1.40038337E+00 -6.60832778E-01 -8.11393005E-02 -6.90347164E-02
  2.52244438E+00  1.15847485E+00  9.62648068E-02  1.88010630E-01  9.28257129E-01
 -2.22563006E+00 -3.05213656E-01  1.25893334E-01 -2.96323067E-01  1.73217676E-02
Total SCF Density                          R   N=         120
  2.07104376E+00 -1.14392296E-01  3.62828356E-01  6.76555700E-03  1.37574870E-02
  4.69865962E-01  3.69661127E-03 -1.76003857E-02 -1.90612794E-02  1.84933833E-01
  1.55340644E-02 -3.68117575E-02 -2.37775848E-03 -2.20054953E-02  3.31208637E-01
 -2.57211036E-01  4.26579417E-01 -2.30136186E-01  5.93617320E-03 -7.00142580E-02
  6.42611428E-01  6.77094072E-03 -2.56407766E-02  1.76746765E-01 -7.91129173E-03
  2.93245279E-02 -1.25532255E-01  7.14019922E-02 -1.55145856E-03 -7.85669653E-03
 -1.08423597E-02  1.32646433E-01 -1.76938337E-02  8.65706293E-03 -5.07396556E-03
  9.54524211E-02  7.17448688E-03 -2.77603581E-02  2.06614238E-02 -1.70636504E-02
  2.02759514E-01 -6.08364245E-02  2.67764514E-02 -1.32873652E-02  1.25351542E-01
 -6.38877339E-02  1.36469177E-01  3.09855932E-01 -2.17045147E-02 -3.26922541E-02
  3.20558294E-03  1.04299109E-01 -1.19107169E-02 -7.31850191E-03  2.50657604E-01
  2.11408081E-02  2.23925220E-03  2.67284857E-01 -1.68863918E-02 -4.45901433E-02
 -1.36265427E-01  9.73867760E-02 -1.03616899E-02 -1.43807258E-02  1.76847919E-01
  1.58997419E-01 -1.91613898E-02  2.94539649E-02 -5.75840276E-02  1.39931307E-01
 -4.16982677E-02  7.26911300E-02 -2.68140196E-02  1.00537304E-01 -3.02646362E-02
 -2.79897839E-02 -3.28255119E-02  1.55786059E-01 -2.18388280E-02  3.46422154E-02
 -1.09603612E-01  2.23070270E-01 -8.24998256E-02  1.12680163E-01 -5.00329133E-02
  1.60097565E-01 -5.87623093E-02 -5.95734731E-02 -6.01643543E-02  2.43211153E-01
  3.82610497E-01 -2.65504565E-02  4.62642430E-02 -5.06006396E-02 -2.41721234E-02
  2.25485383E-01  6.27810741E-02 -3.97639901E-03 -1.80663329E-02  1.34698603E-01
 -2.90601536E-02 -6.00858681E-02 -2.12988875E-02 -4.58674363E-02  1.73853344E-01
 -8.39641771E-04  1.78717610E-03 -8.18623176E-02 -3.28775068E-02  2.92284421E-01
  1.93378204E-02 -6.86360759E-03 -2.54525173E-02  1.74838577E-01 -6.84810142E-02
 -8.50969966E-02 -3.25156581E-02 -6.45907465E-02  2.15555584E-01  2.76969727E-01
Spin SCF Density                           R   N=         120
  7.49647037E-03 -1.81795164E-02  4.38716211E-02  2.26109960E-02 -5.18206350E-02
  7.18186128E-02  4.94033355E-02 -9.96217835E-02  1.26008445E-01  1.52039670E-02
  2.02919267E-02 -4.48033889E-02  5.36373681E-02  9.70770318E-02  5.88563490E-02
 -2.64222150E-02  6.48641160E-02 -8.01915165E-02 -2.02748345E-01 -7.64301366E-02
  8.95359967E-02  1.03106610E-02 -2.37070254E-02  3.60129824E-02  6.45170058E-02
  2.77786232E-02 -3.82039090E-02  1.76171355E-02  3.26257368E-02 -6.45037810E-02
  9.16789247E-02  8.90806859E-03  7.41817930E-02 -1.38358125E-01  4.66579974E-02
  5.09775760E-03  1.18080293E-02 -2.62760451E-02  3.44160609E-02  6.73356193E-02
  3.82009453E-02 -4.48416959E-02  1.76539667E-02  5.10742367E-02  2.45584540E-02
  5.90200780E-03 -1.34102860E-02  1.96333169E-02  4.12607482E-02  1.59493650E-02
 -1.89215321E-02  1.11012462E-02  3.26004273E-02  1.07309908E-02  4.18692800E-03
  7.28333815E-03 -1.83759475E-02  1.79748107E-02  6.39421222E-02  2.28751008E-02
 -1.99755536E-02  1.03165675E-02  4.57860774E-02  1.35923005E-02  4.80559227E-04
 -2.36312331E-03  1.28361126E-02 -2.82721048E-02  2.50698224E-02  4.22314670E-02
  2.04448556E-02 -5.94449849E-02  1.49019844E-02  2.95250620E-02  1.46487863E-02
  4.46954462E-03  1.45821018E-02  9.90601092E-02  2.20129594E-02 -4.73318208E-02
  4.25813345E-02  5.11368083E-02  3.41466934E-02 -9.97933157E-02  2.48893956E-02
  3.48487276E-02  2.45454721E-02  8.30315827E-03  2.53415617E-02  1.44191616E-01
  2.08333187E-01  5.55202061E-03 -1.15834428E-02  1.63417174E-02  3.49858094E-02
  1.76788969E-02 -2.27607070E-02  8.47428339E-03  2.96656659E-02  1.21609480E-02
  6.73625542E-03  9.58385792E-03  6.17541216E-03  1.08415245E-02  3.50382816E-03
  7.41305640E-03 -1.61738973E-02  2.39566074E-02  5.77899615E-02  1.91864359E-02
 -2.96322316E-02  1.13091741E-02  4.62086044E-02  1.30036470E-02  1.00805386E-02
  1.39058160E-02  1.29300759E-02  2.27220097E-02  6.84419559E-04 -4.37839028E-03
Anisotropic Hyperfine tensors              R   N=          24
  9.30112214E-02  5.77773725E-01 -1.28674165E-01  2.45256398E-01  4.47427403E-01
  3.56629438E-02  3.69728961E-02  4.67769610E-04 -1.49909491E-02  1.81978171E-03
  2.26465918E-02 -2.19819470E-02  1.38407692E-04 -5.12732416E-03 -3.29402404E-04
  7.72602401E-04 -4.22468737E-03  1.90994712E-04 -1.45210244E-02  6.34582559E-03
 -7.49870849E-03 -8.16667063E-04 -4.09443014E-03  2.20197328E-02
Isotropic Hyperfine splittings             R   N=           4
  4.02319861E-01  8.88889750E-03  1.58468381E-01  5.60495672E-03
QEq coupling tensors                       R   N=          24
  5.82250225E-01 -1.04486951E-01 -6.28917877E-01 -2.12507216E-02 -1.17644787E-01
  4.66676525E-02 -5.32286213E-01  1.22947077E-02  2.53367655E-01  2.40632294E-02
 -8.63703492E-03  2.78918558E-01 -4.43512711E-03  1.11264400E-02  7.89304554E-03
 -1.77138153E-04  7.02507710E-03 -3.45791842E-03  1.34350883E-02 -1.94223050E-03
  1.19881738E-02  1.94153725E-02  5.56978190E-03 -2.54232621E-02
Mulliken Charges                           R   N=           4
 -2.11305533E-01  1.72238350E-01 -4.81240823E-03  4.38795909E-02
ONIOM Charges                              I   N=          16
           0           0           0           0           0           0
           0           0           0           0           0           0
           0           0           0           0
ONIOM Multiplicities                       I   N=          16
           2           0           0           0           0           0
           0           0           0           0           0           0
           0           0           0           0
Atom Layers                                I   N=           4
           1           1           1           1
Atom Modifiers                             I   N=           4
           0           0           0           0
Force Field                                I                0
Int Atom Modified Types                    I   N=           4
           0           0           0           0
Link Atoms                                 I   N=           4
           0           0           0           0
Atom Modified MM Charges                   R   N=           4
  0.00000000E+00  0.00000000E+00  0.00000000E+00  0.00000000E+00
Link Distances                             R   N=          16
  0.00000000E+00  0.00000000E+00  0.00000000E+00  0.00000000E+00  0.00000000E+00
  0.00000000E+00  0.00000000E+00  0.00000000E+00  0.00000000E+00  0.00000000E+00
  0.00000000E+00  0.00000000E+00  0.00000000E+00  0.00000000E+00  0.00000000E+00
  0.00000000E+00
Cartesian Gradient                         R   N=          12
  6.56444615E-02 -8.05850688E-02 -1.13253557E-01 -9.18982328E-02  1.81402979E-02
  2.57752984E-02  9.07017331E-03  5.12604549E-02  8.38827381E-03  1.71835980E-02
  1.11843160E-02  7.90899851E-02
Cartesian Force Constants                  R   N=          78
  6.47462769E-01 -4.19087316E-02 -1.08249948E-01 -2.91735048E-02 -4.40214726E-02
 -3.54127548E-02 -5.89501245E-01  2.21257199E-02  2.42973493E-02  5.95943658E-01
  1.03953781E-03  3.51356656E-02  2.96554668E-03 -9.55419334E-03 -2.62592869E-02
  4.19135005E-03  2.93692124E-02  3.98209735E-02 -2.33369463E-02 -4.00294848E-03
 -1.69034851E-02 -2.08017739E-02  2.03066144E-04  1.48323843E-03  2.26096535E-05
  1.11830278E-02 -2.00188384E-03  1.91544516E-02  3.74652781E-02  1.09974962E-01
  3.74234938E-02 -1.23872036E-02 -1.89371043E-02 -1.98125692E-02 -1.18692737E-02
 -8.06121045E-02  2.55287571E-03  2.32175260E-03 -1.85972416E-02 -1.37947925E-04
  7.25118251E-04  6.33754501E-04  3.62421053E-04 -1.00393976E-02  1.88075329E-02
 -3.71597499E-02  1.95799456E-02  3.39291708E-03 -6.46502279E-03 -2.66837232E-03
  2.11474801E-02  1.62471259E-03 -1.32088008E-02 -2.77734883E-03  4.20000601E-02
  3.40391571E-03 -3.68606793E-02  3.63243214E-03 -1.84322956E-04  1.00607256E-02
 -5.55369477E-03  4.83179684E-04 -1.04257530E-02  6.99252676E-03 -3.70277244E-03
  3.72257066E-02  2.24292791E-02  1.23305076E-02  1.41890229E-02 -8.22455114E-04
  3.12283552E-04 -2.35512430E-02  1.56224354E-04 -7.57152697E-03 -8.44045758E-04
 -2.17630483E-02 -5.07126413E-03  1.02062658E-02
Dipole Moment                              R   N=           3
  5.01291549E-01 -9.51253218E-02  1.55885291E-01
Dipole Derivatives                         R   N=          36
 -4.25083015E-02 -3.31711475E-01  4.57205868E-02 -2.62623334E-01 -4.31649860E-01
 -1.06791066E-01 -1.69258368E-01 -5.24737361E-01  2.99892705E-01 -8.51580007E-02
  1.85631301E-01  7.26538009E-02  9.25643885E-02  1.30443984E-01  3.24897098E-02
  7.73372503E-02  3.20221358E-01  6.33541638E-02  2.11134591E-02 -6.74055830E-02
  1.62400814E-02  1.73109976E-01  2.31878383E-01  4.56083146E-02 -2.28807470E-03
  1.07546936E-02 -3.64997491E-03  1.06552843E-01  2.13485757E-01 -1.34614469E-01
 -3.05103000E-03  6.93274938E-02  2.86930418E-02  9.42091920E-02  1.93761309E-01
 -3.59596894E-01
Polarizability                             R   N=           6
  9.39097958E+00  1.20540997E+00  3.36342448E+01 -1.78051200E-01 -2.83347214E+00
  1.95276898E+01
