CH3 XYG3 Force                                                          
Force     UXYG3-Full                                                  6-31G               
Number of atoms                            I                4
Info1-9                                    I   N=           9
          13          12           0           0           0         100
           5           2        -902
Full Title                                 C   N=           2
CH3 XYG3 Force          
Route                                      C   N=           5
#p UXYG3(Full)/6-31G nosymm SCF(VeryTight, Conver=11) Force 
Charge                                     I                0
Multiplicity                               I                2
Number of electrons                        I                9
Number of alpha electrons                  I                5
Number of beta electrons                   I                4
Number of basis functions                  I               15
Number of independent functions            I               15
Number of point charges in /Mol/           I                0
Number of translation vectors              I                0
Atomic numbers                             I   N=           4
           6           1           1           1
Nuclear charges                            R   N=           4
  6.00000000E+00  1.00000000E+00  1.00000000E+00  1.00000000E+00
Current cartesian coordinates              R   N=          12
  0.00000000E+00  0.00000000E+00  0.00000000E+00  1.88972613E+00  0.00000000E+00
  0.00000000E+00  0.00000000E+00  3.77945227E+00  0.00000000E+00  0.00000000E+00
  0.00000000E+00  2.83458920E+00
Number of symbols in /Mol/                 I                0
Force Field                                I                0
Atom Types                                 C   N=           4
                                                
Int Atom Types                             I   N=           4
           0           0           0           0
MM charges                                 R   N=           4
  0.00000000E+00  0.00000000E+00  0.00000000E+00  0.00000000E+00
Integer atomic weights                     I   N=           4
          12           1           1           1
Real atomic weights                        R   N=           4
  1.20000000E+01  1.00782504E+00  1.00782504E+00  1.00782504E+00
Atom fragment info                         I   N=           4
           0           0           0           0
Atom residue num                           I   N=           4
           0           0           0           0
Nuclear spins                              I   N=           4
           0           1           1           1
Nuclear ZEff                               R   N=           4
 -3.60000000E+00 -1.00000000E+00 -1.00000000E+00 -1.00000000E+00
Nuclear ZNuc                               R   N=           4
  6.00000000E+00  1.00000000E+00  1.00000000E+00  1.00000000E+00
Nuclear QMom                               R   N=           4
  0.00000000E+00  0.00000000E+00  0.00000000E+00  0.00000000E+00
Nuclear GFac                               R   N=           4
  0.00000000E+00  2.79284600E+00  2.79284600E+00  2.79284600E+00
MicOpt                                     I   N=           4
          -1          -1          -1          -1
Number of residues                         I                0
Number of secondary structures             I                0
Number of contracted shells                I                9
Number of primitive shells                 I               22
Pure/Cartesian d shells                    I                1
Pure/Cartesian f shells                    I                0
Highest angular momentum                   I                1
Largest degree of contraction              I                6
Shell types                                I   N=           9
           0          -1          -1           0           0           0
           0           0           0
Number of primitives per shell             I   N=           9
           6           3           1           3           1           3
           1           3           1
Shell to atom map                          I   N=           9
           1           1           1           2           2           3
           3           4           4
Primitive exponents                        R   N=          22
  3.04752488E+03  4.57369518E+02  1.03948685E+02  2.92101553E+01  9.28666296E+00
  3.16392696E+00  7.86827235E+00  1.88128854E+00  5.44249258E-01  1.68714478E-01
  1.87311370E+01  2.82539436E+00  6.40121692E-01  1.61277759E-01  1.87311370E+01
  2.82539436E+00  6.40121692E-01  1.61277759E-01  1.87311370E+01  2.82539436E+00
  6.40121692E-01  1.61277759E-01
Contraction coefficients                   R   N=          22
  1.83473713E-03  1.40373228E-02  6.88426223E-02  2.32184443E-01  4.67941348E-01
  3.62311985E-01 -1.19332420E-01 -1.60854152E-01  1.14345644E+00  1.00000000E+00
  3.34946043E-02  2.34726953E-01  8.13757326E-01  1.00000000E+00  3.34946043E-02
  2.34726953E-01  8.13757326E-01  1.00000000E+00  3.34946043E-02  2.34726953E-01
  8.13757326E-01  1.00000000E+00
P(S=P) Contraction coefficients            R   N=          22
  0.00000000E+00  0.00000000E+00  0.00000000E+00  0.00000000E+00  0.00000000E+00
  0.00000000E+00  6.89990666E-02  3.16423961E-01  7.44308291E-01  1.00000000E+00
  0.00000000E+00  0.00000000E+00  0.00000000E+00  0.00000000E+00  0.00000000E+00
  0.00000000E+00  0.00000000E+00  0.00000000E+00  0.00000000E+00  0.00000000E+00
  0.00000000E+00  0.00000000E+00
Coordinates of each shell                  R   N=          27
  0.00000000E+00  0.00000000E+00  0.00000000E+00  0.00000000E+00  0.00000000E+00
  0.00000000E+00  0.00000000E+00  0.00000000E+00  0.00000000E+00  1.88972613E+00
  0.00000000E+00  0.00000000E+00  1.88972613E+00  0.00000000E+00  0.00000000E+00
  0.00000000E+00  3.77945227E+00  0.00000000E+00  0.00000000E+00  3.77945227E+00
  0.00000000E+00  0.00000000E+00  0.00000000E+00  2.83458920E+00  0.00000000E+00
  0.00000000E+00  2.83458920E+00
Num ILSW                                   I              100
ILSW                                       I   N=         100
           1           1           0           0           2           0
           0           0           0           0         402 67108864000
           0           0           0           0           2           0
           0           0           0           0           1           0
           1           1           0           0           0           0
           0           0      100000           0          -1           0
           0           0           0           0           0           0
           0           0           0           1           0           0
           0           0           1           0           0           0
           0           0           4          52           0           0
           0           0          59           0           0           0
           1         402          -5           0           0           0
           0           0           0           0           0           0
           0           0           0           0           0           0
           0           0           0           0           0           0
           0           0           0           0           0           0
           0           0           0           0
Num RLSW                                   I               52
RLSW                                       R   N=          52
  8.00000000E-01  7.20000000E-01  1.00000000E+00  8.10000000E-01  2.00000000E-01
  0.00000000E+00  0.00000000E+00  1.00000000E+00  0.00000000E+00  0.00000000E+00
  0.00000000E+00  0.00000000E+00  1.00000000E+00  0.00000000E+00  0.00000000E+00
  0.00000000E+00  0.00000000E+00  1.00000000E+00  0.00000000E+00  0.00000000E+00
  0.00000000E+00  0.00000000E+00  1.00000000E+00  0.00000000E+00  0.00000000E+00
  0.00000000E+00  0.00000000E+00  1.00000000E+00  0.00000000E+00  0.00000000E+00
  0.00000000E+00  0.00000000E+00  1.00000000E+00  0.00000000E+00  0.00000000E+00
  0.00000000E+00  0.00000000E+00  0.00000000E+00  3.21100000E-01  3.21100000E-01
  8.00000000E-01  7.20000000E-01  1.00000000E+00  8.10000000E-01  1.96700000E-01
  2.10700000E-01  6.78900000E-01  6.78900000E-01  2.00000000E-01  8.03300000E-01
  0.00000000E+00  0.00000000E+00
MxBond                                     I                1
NBond                                      I   N=           4
           1           1           0           0
IBond                                      I   N=           4
           2           1           0           0
RBond                                      R   N=           4
  1.00000000E+00  1.00000000E+00  0.00000000E+00  0.00000000E+00
Virial Ratio                               R      2.012073533964990E+00
SCF Energy                                 R     -3.947310826714043E+01
MP2 Energy                                 R     -3.952615642457462E+01
Total Energy                               R     -3.952615642457462E+01
Post-SCF wavefunction norm                 R      1.091929515616903E+00
S**2                                       R      8.572328047833255E-01
S**2 after annihilation                    R      7.501266429724238E-01
RMS Force                                  R      6.002706167935087E-02
RMS Density                                R      6.521786254256966E-12
Nuclear derivative order                   I                0
External E-field                           R   N=          35
  0.00000000E+00  0.00000000E+00  0.00000000E+00  0.00000000E+00  0.00000000E+00
  0.00000000E+00  0.00000000E+00  0.00000000E+00  0.00000000E+00  0.00000000E+00
  0.00000000E+00  0.00000000E+00  0.00000000E+00  0.00000000E+00  0.00000000E+00
  0.00000000E+00  0.00000000E+00  0.00000000E+00  0.00000000E+00  0.00000000E+00
  0.00000000E+00  0.00000000E+00  0.00000000E+00  0.00000000E+00  0.00000000E+00
  0.00000000E+00  0.00000000E+00  0.00000000E+00  0.00000000E+00  0.00000000E+00
  0.00000000E+00  0.00000000E+00  0.00000000E+00  0.00000000E+00  0.00000000E+00
IOpCl                                      I                1
IROHF                                      I                0
Alpha Orbital Energies                     R   N=          15
 -1.02856818E+01 -6.79068055E-01 -3.65412275E-01 -3.10795384E-01 -3.08458652E-01
 -7.98680516E-02  1.74990563E-02  1.58518993E-01  5.14222873E-01  5.43306720E-01
  5.98255944E-01  7.26572273E-01  8.04175912E-01  9.27224107E-01  1.01129099E+00
Beta Orbital Energies                      R   N=          15
 -1.02770930E+01 -6.62465497E-01 -3.51084273E-01 -2.78929156E-01 -1.56413950E-01
 -4.31867567E-02  2.92081509E-02  1.65770106E-01  5.33517368E-01  5.85727775E-01
  5.95484478E-01  7.47109784E-01  8.65750197E-01  9.37079664E-01  1.02058330E+00
Alpha MO coefficients                      R   N=         225
  9.95268911E-01  3.29545543E-02  1.82662866E-03 -1.69038497E-04  8.10499892E-04
 -1.97759094E-02 -4.56721103E-03 -7.45748421E-04 -2.11762282E-03 -1.28469119E-03
  7.86099192E-03  1.46267156E-04  1.50500185E-03  3.13851093E-04  2.72489180E-03
 -1.93553167E-01  3.95275614E-01  1.74025967E-01 -2.92923528E-02  2.58358909E-02
  3.70727403E-01  4.15356111E-02 -6.37955348E-03  2.08138561E-02  2.48803227E-01
  8.29574900E-02  3.31510694E-02  2.41442589E-02  8.12615701E-02  3.59692524E-02
  5.82075607E-02 -9.70620494E-02  4.20442218E-01  3.48641443E-02 -1.84289707E-01
 -3.02348329E-01  1.50945745E-01  2.32639458E-02 -9.34755237E-02  2.44550453E-01
  2.52319140E-01 -6.42990936E-02 -9.71666567E-02 -1.93024091E-01 -2.41111391E-01
  6.22666221E-02 -1.42475777E-01  1.45207497E-01  3.12953144E-01  1.51660222E-01
 -2.52470206E-01  8.02604209E-02  2.22897348E-01  9.82849264E-02  2.89408917E-02
  5.64332595E-02  2.96941177E-01  4.44152364E-01  5.12470436E-02  7.63372550E-02
  6.31020281E-02 -1.27672669E-01  2.06629933E-01 -7.40275776E-03  3.70674965E-01
 -2.70355861E-01  1.16348180E-01 -2.98737738E-03  2.36895659E-01  6.98202435E-02
  6.72666941E-02 -1.84439473E-01 -2.96941811E-01  2.05402981E-01  2.66520599E-01
  5.38612502E-02 -9.55899306E-02  7.88963391E-02 -5.27907443E-01  4.19059081E-02
 -2.83926674E-01  5.22090280E-02 -5.36518390E-01  3.10091847E-02  1.93968820E-03
  9.00020400E-02  2.19024390E-01  5.42394330E-01  6.54739620E-03  5.75750794E-02
  6.83306005E-02 -1.15264267E-01  3.81767551E-02  2.96353020E-02 -4.66556467E-01
 -6.16409934E-01 -2.24842410E-02  5.25541818E-03 -6.54597610E-01 -3.30672026E-02
  2.07661069E-01 -2.96834846E-02  3.13954398E-03  2.26427317E-01  1.06102661E+00
  7.68159092E-02 -1.03462070E-01 -3.65688220E-01  3.97380695E-02  8.38243663E-02
 -1.60500465E+00 -1.12865894E+00 -2.15996852E-02  2.95306113E-02  7.49089486E-02
  2.38395143E+00 -5.58826375E-02  1.75480483E-02 -7.62813293E-02 -3.32339705E-02
 -4.87100461E-02  3.02814916E-01 -7.63862320E-01 -3.83558444E-01 -2.63455263E-01
  2.96865737E-01  1.28301947E+00  4.80412830E-01  3.49684195E-01 -2.74032870E-01
 -4.25693211E-01  1.13921065E-01 -2.47212658E-01  1.53133866E-01 -2.91081001E-01
 -1.20731911E-02 -3.44965933E-01 -2.80389686E-01  5.92649336E-01  6.27041777E-01
  8.60953406E-01  9.71641587E-01 -6.77352528E-01 -7.52212766E-01 -4.06072272E-01
 -6.00853438E-01 -8.64508863E-02  2.20571534E-01  3.70733933E-02  1.41147671E-01
 -1.28842187E-02  3.02303468E-02 -1.01726784E-01  7.55935221E-01 -7.50944493E-01
  1.81816660E-01  1.39770574E-01 -8.98779195E-01  1.04271221E+00 -3.13351858E-04
 -7.55263880E-02 -2.51011234E-02  3.44991421E-01  5.96631232E-03 -5.20345453E-01
  1.39676313E-02 -9.13700766E-01  1.03622260E-01 -2.52038385E-02 -9.80836684E-02
  1.49897623E+00 -3.36036071E-02  1.97471111E-01  3.26437482E-01 -7.05575960E-02
 -6.15560352E-02  7.28682269E-01 -8.76263090E-01  8.13871933E-01 -1.19505902E+00
 -5.89681063E-03  4.24267611E-01 -1.96071462E-01  1.95117168E-01  1.62122565E-01
 -7.06012361E-01 -1.98169595E-02 -6.81968168E-02 -4.20565603E-01  3.30689970E-01
 -7.50281827E-02  1.02306348E+00 -9.01898676E-01 -5.90751700E-01  1.01590179E+00
 -3.57616291E-02 -9.78260640E-01  3.45055416E-01 -2.08064192E-01 -2.71062621E-01
  1.75684330E+00  4.04057912E-01  3.93779118E-01  5.76216827E-01 -8.81656987E-01
 -1.71634139E-01  1.56680964E-01 -5.56656925E-01 -7.63709553E-01  7.21614828E-02
  3.06402510E-02 -1.43613389E+00 -6.55943549E-01 -9.53443543E-02 -7.54978977E-02
  2.59223785E+00  1.17485750E+00  1.22996934E-01  1.94915377E-01  9.21433117E-01
 -2.25343937E+00 -2.12489899E-01  3.33368387E-02 -3.29843132E-01  4.16859447E-02
Beta MO coefficients                       R   N=         225
  9.95359530E-01  3.24467529E-02  2.09314215E-03  4.93056553E-04  1.06374408E-03
 -1.95772824E-02 -4.59015192E-03 -9.25929056E-04 -2.16648812E-03 -1.31898400E-03
  7.80834677E-03  1.41923824E-04  1.52056624E-03  3.01562271E-04  2.70463058E-03
 -1.88102137E-01  3.78389898E-01  1.97917536E-01  1.79900287E-02  4.48915979E-02
  3.56093182E-01  4.66018318E-02  9.77020925E-03  2.71398477E-02  2.57103420E-01
  9.40358182E-02  2.37126237E-02  1.59202057E-02  8.39020190E-02  3.90467083E-02
  4.31593911E-02 -5.94486180E-02  3.46624995E-01 -5.54578237E-02 -2.56652910E-01
 -2.50192947E-01  1.14610237E-01 -3.28768302E-02 -1.36548937E-01  2.24172717E-01
  2.48884176E-01 -3.96743820E-02 -6.31148934E-02 -2.33128681E-01 -3.01337812E-01
 -6.15495289E-02  1.08235543E-01 -1.99259907E-01  2.85405576E-01 -2.61323824E-01
  2.94556062E-01 -1.07539602E-01  2.09753643E-01 -1.76097328E-01 -8.29441096E-02
 -9.91748786E-02  1.61942575E-01  2.87918212E-01 -1.54228644E-01 -2.19861427E-01
 -1.02896146E-01  1.79173867E-01 -2.29936356E-01 -2.28778129E-01 -1.68419937E-01
  5.09742448E-01 -1.45498994E-01 -2.16248759E-01 -1.34742315E-01 -7.76437808E-02
 -1.64962298E-01 -1.84335610E-01 -3.74966867E-01 -8.49417567E-02 -1.69797264E-01
  2.22213748E-02 -6.67910666E-02 -3.14730079E-03 -4.80439535E-01 -9.42400517E-03
 -1.39193133E-01 -4.19347336E-02 -5.07124820E-01 -3.81572394E-02 -3.48748219E-02
  7.73572960E-02  2.33822295E-01  6.85702631E-01 -3.08943866E-02  5.21347275E-03
  6.35335107E-02 -1.08042799E-01  2.15388680E-02  1.94524885E-02 -4.73126530E-01
 -6.18230589E-01 -5.73955550E-02 -1.23420625E-02 -6.81805768E-01 -3.23846573E-02
  2.45493393E-01 -3.38173575E-02 -1.40871605E-02  2.10877943E-01  1.05596807E+00
  7.33434766E-02 -9.68693539E-02 -3.69152766E-01  4.49324973E-02  9.11967177E-02
 -1.58304910E+00 -1.13366134E+00 -1.24563460E-02  4.56129913E-02  6.26752555E-02
  2.38543253E+00 -5.35596979E-02 -1.29572343E-02 -7.79184065E-02 -5.68993714E-02
 -4.61759234E-02  1.26255922E-03 -7.61415124E-01  1.83576092E-01  1.37096255E-01
  8.10248759E-01  1.60227114E+00 -2.11433748E-01 -1.30483067E-01 -4.77987840E-01
 -7.16764604E-01  3.01788075E-02  7.40688863E-03  1.44958518E-01 -1.82795999E-01
 -3.05003592E-02  3.77140261E-01 -3.09938957E-01 -7.31362048E-01 -6.73171745E-01
 -2.48689539E-01  1.47757092E-01  8.24607790E-01  8.15491802E-01  9.06803313E-02
  1.22688047E-01  1.43050391E-01 -3.38799380E-01  1.23659231E-01 -3.96084649E-01
 -5.69270681E-03  7.78816011E-02 -1.90399846E-02  7.34567512E-01 -7.66569892E-01
 -8.00943700E-03 -4.78884560E-02 -8.95743101E-01  1.04128799E+00  6.39756107E-02
  2.56296709E-02 -2.39205725E-02  3.62289392E-01 -3.29520844E-02 -4.48871329E-01
  1.93882841E-02 -1.01771678E+00  1.68848803E-01 -6.32233461E-03 -1.18709454E-01
  1.64386356E+00 -3.45148053E-02  1.27005269E-01  4.10032545E-01 -1.36546048E-01
 -6.95227887E-02  3.73674853E-01 -5.02240929E-01  9.63940412E-01 -1.43767354E+00
  3.73568509E-03  1.23203314E-01 -2.26097528E-01  1.60066835E-01  1.38039674E-01
 -2.07555929E-01  1.80608069E-02 -9.03499760E-03 -3.25958337E-01  4.19320177E-01
 -2.20064340E-01  1.18740209E+00 -1.04159710E+00 -2.75879931E-01  5.95881052E-01
 -3.33848697E-02 -1.05119130E+00  3.19460291E-01 -1.76772744E-01 -2.62262436E-01
  1.88312455E+00  4.50731135E-01  3.84613263E-01  5.66646475E-01 -8.26093987E-01
 -2.77447933E-01  2.49273106E-01 -6.43117170E-01 -7.74415162E-01  8.46689406E-02
  3.16605704E-02 -1.40038652E+00 -6.60833014E-01 -8.11327735E-02 -6.90328430E-02
  2.52244915E+00  1.15847767E+00  9.62599029E-02  1.88009638E-01  9.28255994E-01
 -2.22563272E+00 -3.05211257E-01  1.25892106E-01 -2.96323885E-01  1.73222765E-02
Total SCF Density                          R   N=         120
  2.07104424E+00 -1.14393215E-01  3.62830290E-01  6.76716833E-03  1.37544184E-02
  4.69870309E-01  3.69685284E-03 -1.76000596E-02 -1.90574513E-02  1.84923848E-01
  1.55346816E-02 -3.68122491E-02 -2.37472417E-03 -2.20052468E-02  3.31208843E-01
 -2.57213524E-01  4.26584191E-01 -2.30144345E-01  5.93235627E-03 -7.00191093E-02
  6.42623311E-01  6.77134708E-03 -2.56415486E-02  1.76748143E-01 -7.90918716E-03
  2.93260888E-02 -1.25534918E-01  7.14023910E-02 -1.55135598E-03 -7.85618383E-03
 -1.08410055E-02  1.32640063E-01 -1.76934910E-02  8.65556328E-03 -5.07300481E-03
  9.54484093E-02  7.17513345E-03 -2.77611676E-02  2.06634488E-02 -1.70626516E-02
  2.02759965E-01 -6.08400582E-02  2.67774654E-02 -1.32866526E-02  1.25352001E-01
 -6.38869669E-02  1.36467712E-01  3.09858414E-01 -2.17016866E-02 -3.26902493E-02
  3.20160840E-03  1.04299988E-01 -1.19095604E-02 -7.31734556E-03  2.50659103E-01
  2.11422014E-02  2.23651662E-03  2.67289315E-01 -1.68835321E-02 -4.45877734E-02
 -1.36271755E-01  9.73883034E-02 -1.03605777E-02 -1.43791559E-02  1.76850203E-01
  1.59000904E-01 -1.91615348E-02  2.94543379E-02 -5.75846238E-02  1.39927435E-01
 -4.16989220E-02  7.26918761E-02 -2.68138960E-02  1.00534901E-01 -3.02648960E-02
 -2.79900211E-02 -3.28259047E-02  1.55787133E-01 -2.18392587E-02  3.46432880E-02
 -1.09604986E-01  2.23062771E-01 -8.25017924E-02  1.12682336E-01 -5.00329958E-02
  1.60092877E-01 -5.87632700E-02 -5.95739212E-02 -6.01651670E-02  2.43211259E-01
  3.82608483E-01 -2.65501822E-02  4.62641825E-02 -5.05997517E-02 -2.41719979E-02
  2.25485544E-01  6.27791469E-02 -3.97562004E-03 -1.80659616E-02  1.34698777E-01
 -2.90596041E-02 -6.00854152E-02 -2.12991998E-02 -4.58684071E-02  1.73853582E-01
 -8.39093873E-04  1.78665783E-03 -8.18609321E-02 -3.28775835E-02  2.92285694E-01
  1.93346344E-02 -6.86248605E-03 -2.54522410E-02  1.74839506E-01 -6.84803642E-02
 -8.50963345E-02 -3.25164332E-02 -6.45926582E-02  2.15556594E-01  2.76972006E-01
Spin SCF Density                           R   N=         120
  7.49606684E-03 -1.81784619E-02  4.38687351E-02  2.26087791E-02 -5.18146433E-02
  7.18120489E-02  4.94034508E-02 -9.96223829E-02  1.26005313E-01  1.52122529E-02
  2.02907270E-02 -4.48006031E-02  5.36330595E-02  9.70782318E-02  5.88543540E-02
 -2.64209544E-02  6.48603836E-02 -8.01838751E-02 -2.02746789E-01 -7.64251056E-02
  8.95324942E-02  1.03098185E-02 -2.37049475E-02  3.60105117E-02  6.45154755E-02
  2.77765743E-02 -3.82016037E-02  1.76162458E-02  3.26258669E-02 -6.45045571E-02
  9.16783241E-02  8.91316982E-03  7.41826584E-02 -1.38358417E-01  4.66575648E-02
  5.10082709E-03  1.18074521E-02 -2.62747763E-02  3.44138895E-02  6.73358967E-02
  3.81996529E-02 -4.48396064E-02  1.76529819E-02  5.10745312E-02  2.45577082E-02
  5.90150733E-03 -1.34088503E-02  1.96307799E-02  4.12587031E-02  1.59476069E-02
 -1.89193395E-02  1.11003687E-02  3.25999237E-02  1.07300643E-02  4.18502092E-03
  7.28294028E-03 -1.83744674E-02  1.79718454E-02  6.39406301E-02  2.28729571E-02
 -1.99737956E-02  1.03157011E-02  4.57860129E-02  1.35913189E-02  4.78912555E-04
 -2.36448546E-03  1.28363479E-02 -2.82731660E-02  2.50700837E-02  4.22349755E-02
  2.04455960E-02 -5.94452096E-02  1.49019644E-02  2.95269834E-02  1.46489253E-02
  4.46935350E-03  1.45821292E-02  9.90636067E-02  2.20134319E-02 -4.73336313E-02
  4.25823844E-02  5.11411055E-02  3.41481403E-02 -9.97941919E-02  2.48895877E-02
  3.48507821E-02  2.45458874E-02  8.30332528E-03  2.53420517E-02  1.44195286E-01
  2.08336179E-01  5.55177318E-03 -1.15830534E-02  1.63409093E-02  3.49867169E-02
  1.76783635E-02 -2.27592587E-02  8.47366541E-03  2.96660922E-02  1.21604561E-02
  6.73566409E-03  9.58315052E-03  6.17553557E-03  1.08418885E-02  3.50338899E-03
  7.41266347E-03 -1.61732063E-02  2.39549893E-02  5.77911227E-02  1.91856908E-02
 -2.96301586E-02  1.13082223E-02  4.62091849E-02  1.30030465E-02  1.00796979E-02
  1.39048151E-02  1.29300678E-02  2.27222637E-02  6.83934720E-04 -4.37896351E-03
Total MP2 Density                          R   N=         120
  2.06994980E+00 -1.24114215E-01  3.66481355E-01  3.24478384E-03  1.80510659E-02
  4.63105172E-01  4.04286938E-03 -2.22342068E-02 -1.80823732E-02  1.99585506E-01
  1.42937765E-02 -4.17716820E-02 -3.92467690E-03 -2.19991867E-02  3.30398881E-01
 -2.28852220E-01  3.93839678E-01 -2.06224000E-01  1.09135568E-02 -4.86771771E-02
  6.03336916E-01  1.03288415E-02 -2.71715305E-02  1.79392492E-01 -5.92061885E-03
  3.09139456E-02 -1.26902228E-01  8.35135373E-02 -2.03211880E-03 -8.54463731E-03
 -1.23321039E-02  1.47601717E-01 -1.84416435E-02  1.64295917E-02 -4.95624962E-03
  1.15524622E-01  7.25484799E-03 -2.87091080E-02  1.78254242E-02 -1.68215478E-02
  2.08655219E-01 -5.05305537E-02  2.98769995E-02 -1.42929954E-02  1.40204944E-01
 -6.33967619E-02  1.40068987E-01  2.94858991E-01 -2.21765948E-02 -3.46084927E-02
  1.03726723E-02  1.04408009E-01 -1.30842478E-02 -9.75302743E-03  2.52958405E-01
  9.06496263E-03  1.65048952E-02  2.42752942E-01 -1.84348003E-02 -4.99597924E-02
 -1.17038997E-01  9.55981084E-02 -1.26829690E-02 -1.98528613E-02  1.74577421E-01
  1.58794294E-01 -1.66128902E-02  2.13080863E-02 -4.55526788E-02  1.15237837E-01
 -3.19569046E-02  6.74392028E-02 -2.36102417E-02  9.44759849E-02 -2.58964244E-02
 -2.36549871E-02 -3.04764918E-02  1.47349349E-01 -2.00865900E-02  2.34458087E-02
 -9.76905481E-02  2.04983007E-01 -7.32083826E-02  1.10432614E-01 -5.00207390E-02
  1.66010651E-01 -5.75146654E-02 -5.73962442E-02 -6.04077616E-02  2.39779951E-01
  4.01923300E-01 -2.71158151E-02  4.33847401E-02 -4.74026868E-02 -2.16080052E-02
  1.95347496E-01  7.23217711E-02 -3.76389178E-03 -1.70117521E-02  1.28620051E-01
 -2.80602058E-02 -6.21505013E-02 -1.61342588E-02 -4.18567027E-02  1.66895443E-01
 -5.50842227E-03  3.14666398E-03 -8.18728339E-02 -3.12922230E-02  2.62414330E-01
  3.52983054E-02 -7.89500527E-03 -2.60510452E-02  1.74115896E-01 -7.08143230E-02
 -9.48827651E-02 -2.87985847E-02 -6.44741081E-02  2.12079270E-01  2.89342144E-01
Spin MP2 Density                           R   N=         120
  7.76417922E-03 -1.97197714E-02  5.07334120E-02  2.46290731E-02 -5.98914076E-02
  8.04479886E-02  4.92221468E-02 -1.03639596E-01  1.23474316E-01  1.63352323E-02
  2.16817889E-02 -5.05581002E-02  5.76854336E-02  9.52500035E-02  6.71717699E-02
 -2.51046204E-02  6.32010807E-02 -7.76790780E-02 -1.89060182E-01 -7.42729343E-02
  7.97561052E-02  1.22265644E-02 -2.92419357E-02  4.36514525E-02  6.79247076E-02
  3.18151171E-02 -4.38198736E-02  2.43391821E-02  3.33051058E-02 -6.70946622E-02
  9.26727845E-02  8.81014226E-03  7.48153894E-02 -1.40903790E-01  5.37306706E-02
  4.71675365E-03  1.30078941E-02 -3.00591021E-02  3.78933474E-02  6.83035465E-02
  4.47702342E-02 -4.79314518E-02  2.21353243E-02  5.62760880E-02  3.11583601E-02
  5.47526684E-03 -1.30676741E-02  1.90374617E-02  3.66303722E-02  1.51918434E-02
 -1.57782303E-02  1.26893273E-02  3.23152431E-02  1.10666743E-02  3.54076455E-03
  6.08348472E-03 -1.56222122E-02  1.30540989E-02  5.48615457E-02  2.05039548E-02
 -1.41026157E-02  1.07166788E-02  4.46048929E-02  1.36033336E-02 -2.15425655E-03
 -6.29298658E-03  9.67941744E-03 -2.21517837E-02  1.79581979E-02  3.08092293E-02
  1.42016076E-02 -4.64721560E-02  1.49640554E-02  2.29422397E-02  1.31005850E-02
  2.83588017E-03  1.00108402E-02  8.72115462E-02  1.90805730E-02 -4.15677706E-02
  3.38698768E-02  4.13020942E-02  2.61661708E-02 -8.81856661E-02  2.64972850E-02
  2.89407094E-02  2.34386288E-02  5.90842753E-03  2.05041008E-02  1.32318245E-01
  2.01197052E-01  4.86117218E-03 -1.01723851E-02  1.46964035E-02  2.80031938E-02
  1.60110838E-02 -1.98737386E-02  8.76994755E-03  2.78494476E-02  1.26845764E-02
  6.54763559E-03  9.50815828E-03  4.21309566E-03  8.17775616E-03  1.47357225E-03
  6.70609955E-03 -1.43281116E-02  2.30058931E-02  5.00264490E-02  1.64693846E-02
 -2.74361775E-02  1.24665620E-02  4.64185556E-02  1.36704582E-02  1.06910047E-02
  1.51218333E-02  9.92592105E-03  1.98533488E-02 -2.71949380E-03 -1.00719716E-02
Grdnt Energy                               R     -3.952615642457462E+01
Grdnt NVar                                 I               12
Grdnt IGetFC                               I                7
Internal Forces                            R   N=          12
 -5.94292289E-02  8.33325569E-02  1.17352312E-01  8.75332426E-02 -1.85141847E-02
 -2.82696200E-02 -9.25651225E-03 -5.44643798E-02 -7.76566894E-03 -1.88475014E-02
 -1.03539924E-02 -8.13170235E-02
Internal Force Constants                   R   N=          78
  4.76883293E-01  0.00000000E+00  1.00000000E+00  0.00000000E+00  0.00000000E+00
  1.00000000E+00 -4.76883293E-01  0.00000000E+00  0.00000000E+00  4.76883293E-01
  0.00000000E+00  0.00000000E+00  0.00000000E+00  0.00000000E+00  1.00000000E+00
  0.00000000E+00  0.00000000E+00  0.00000000E+00  0.00000000E+00  0.00000000E+00
  1.00000000E+00  0.00000000E+00  0.00000000E+00  0.00000000E+00  0.00000000E+00
  0.00000000E+00  0.00000000E+00  1.00000000E+00  0.00000000E+00  0.00000000E+00
  0.00000000E+00  0.00000000E+00  0.00000000E+00  0.00000000E+00  0.00000000E+00
  1.00000000E+00  0.00000000E+00  0.00000000E+00  0.00000000E+00  0.00000000E+00
  0.00000000E+00  0.00000000E+00  0.00000000E+00  0.00000000E+00  1.00000000E+00
  0.00000000E+00  0.00000000E+00  0.00000000E+00  0.00000000E+00  0.00000000E+00
  0.00000000E+00  0.00000000E+00  0.00000000E+00  0.00000000E+00  1.00000000E+00
  0.00000000E+00  0.00000000E+00  0.00000000E+00  0.00000000E+00  0.00000000E+00
  0.00000000E+00  0.00000000E+00  0.00000000E+00  0.00000000E+00  0.00000000E+00
  1.00000000E+00  0.00000000E+00  0.00000000E+00  0.00000000E+00  0.00000000E+00
  0.00000000E+00  0.00000000E+00  0.00000000E+00  0.00000000E+00  0.00000000E+00
  0.00000000E+00  0.00000000E+00  1.00000000E+00
Mulliken Charges                           R   N=           4
 -2.11303696E-01  1.72234694E-01 -4.80797061E-03  4.38769725E-02
ONIOM Charges                              I   N=          16
           0           0           0           0           0           0
           0           0           0           0           0           0
           0           0           0           0
ONIOM Multiplicities                       I   N=          16
           2           0           0           0           0           0
           0           0           0           0           0           0
           0           0           0           0
Atom Layers                                I   N=           4
           1           1           1           1
Atom Modifiers                             I   N=           4
           0           0           0           0
Force Field                                I                0
Atom Modified Types                        C   N=           4
                                                
Int Atom Modified Types                    I   N=           4
           0           0           0           0
Link Atoms                                 I   N=           4
           0           0           0           0
Atom Modified MM Charges                   R   N=           4
  0.00000000E+00  0.00000000E+00  0.00000000E+00  0.00000000E+00
Link Distances                             R   N=          16
  0.00000000E+00  0.00000000E+00  0.00000000E+00  0.00000000E+00  0.00000000E+00
  0.00000000E+00  0.00000000E+00  0.00000000E+00  0.00000000E+00  0.00000000E+00
  0.00000000E+00  0.00000000E+00  0.00000000E+00  0.00000000E+00  0.00000000E+00
  0.00000000E+00
Cartesian Gradient                         R   N=          12
  5.94292289E-02 -8.33325569E-02 -1.17352312E-01 -8.75332426E-02  1.85141847E-02