CH3 MP2 Frequency                                                       
Freq      UMP2-Full                                                   6-31G               
Number of atoms                            I                4
Info1-9                                    I   N=           9
          12          11           0           0           0         100
           6           2           2
Charge                                     I                0
Multiplicity                               I                2
Number of electrons                        I                9
Number of alpha electrons                  I                5
Number of beta electrons                   I                4
Number of basis functions                  I               15
Number of independent functions            I               15
Number of point charges in /Mol/           I                0
Number of translation vectors              I                0
Atomic numbers                             I   N=           4
           6           1           1           1
Nuclear charges                            R   N=           4
  6.00000000E+00  1.00000000E+00  1.00000000E+00  1.00000000E+00
Current cartesian coordinates              R   N=          12
  0.00000000E+00  0.00000000E+00  0.00000000E+00  1.88972613E+00  0.00000000E+00
  0.00000000E+00  0.00000000E+00  3.77945227E+00  0.00000000E+00  0.00000000E+00
  0.00000000E+00  2.83458920E+00
Force Field                                I                0
Int Atom Types                             I   N=           4
           0           0           0           0
MM charges                                 R   N=           4
  0.00000000E+00  0.00000000E+00  0.00000000E+00  0.00000000E+00
Integer atomic weights                     I   N=           4
          12           1           1           1
Real atomic weights                        R   N=           4
  1.20000000E+01  1.00782504E+00  1.00782504E+00  1.00782504E+00
Atom fragment info                         I   N=           4
           0           0           0           0
Atom residue num                           I   N=           4
           0           0           0           0
Nuclear spins                              I   N=           4
           0           1           1           1
Nuclear ZEff                               R   N=           4
 -3.60000000E+00 -1.00000000E+00 -1.00000000E+00 -1.00000000E+00
Nuclear QMom                               R   N=           4
  0.00000000E+00  0.00000000E+00  0.00000000E+00  0.00000000E+00
Nuclear GFac                               R   N=           4
  0.00000000E+00  2.79284600E+00  2.79284600E+00  2.79284600E+00
MicOpt                                     I   N=           4
          -1          -1          -1          -1
Number of contracted shells                I                9
Number of primitive shells                 I               22
Pure/Cartesian d shells                    I                1
Pure/Cartesian f shells                    I                0
Highest angular momentum                   I                1
Largest degree of contraction              I                6
Shell types                                I   N=           9
           0          -1          -1           0           0           0
           0           0           0
Number of primitives per shell             I   N=           9
           6           3           1           3           1           3
           1           3           1
Shell to atom map                          I   N=           9
           1           1           1           2           2           3
           3           4           4
Primitive exponents                        R   N=          22
  3.04752488E+03  4.57369518E+02  1.03948685E+02  2.92101553E+01  9.28666296E+00
  3.16392696E+00  7.86827235E+00  1.88128854E+00  5.44249258E-01  1.68714478E-01
  1.87311370E+01  2.82539436E+00  6.40121692E-01  1.61277759E-01  1.87311370E+01
  2.82539436E+00  6.40121692E-01  1.61277759E-01  1.87311370E+01  2.82539436E+00
  6.40121692E-01  1.61277759E-01
Contraction coefficients                   R   N=          22
  1.83473713E-03  1.40373228E-02  6.88426223E-02  2.32184443E-01  4.67941348E-01
  3.62311985E-01 -1.19332420E-01 -1.60854152E-01  1.14345644E+00  1.00000000E+00
  3.34946043E-02  2.34726953E-01  8.13757326E-01  1.00000000E+00  3.34946043E-02
  2.34726953E-01  8.13757326E-01  1.00000000E+00  3.34946043E-02  2.34726953E-01
  8.13757326E-01  1.00000000E+00
P(S=P) Contraction coefficients            R   N=          22
  0.00000000E+00  0.00000000E+00  0.00000000E+00  0.00000000E+00  0.00000000E+00
  0.00000000E+00  6.89990666E-02  3.16423961E-01  7.44308291E-01  1.00000000E+00
  0.00000000E+00  0.00000000E+00  0.00000000E+00  0.00000000E+00  0.00000000E+00
  0.00000000E+00  0.00000000E+00  0.00000000E+00  0.00000000E+00  0.00000000E+00
  0.00000000E+00  0.00000000E+00
Coordinates of each shell                  R   N=          27
  0.00000000E+00  0.00000000E+00  0.00000000E+00  0.00000000E+00  0.00000000E+00
  0.00000000E+00  0.00000000E+00  0.00000000E+00  0.00000000E+00  1.88972613E+00
  0.00000000E+00  0.00000000E+00  1.88972613E+00  0.00000000E+00  0.00000000E+00
  0.00000000E+00  3.77945227E+00  0.00000000E+00  0.00000000E+00  3.77945227E+00
  0.00000000E+00  0.00000000E+00  0.00000000E+00  2.83458920E+00  0.00000000E+00
  0.00000000E+00  2.83458920E+00
Constraint Structure                       R   N=          12
  0.00000000E+00  0.00000000E+00  0.00000000E+00  1.88972613E+00  0.00000000E+00
  0.00000000E+00  0.00000000E+00  3.77945227E+00  0.00000000E+00  0.00000000E+00
  0.00000000E+00  2.83458920E+00
Num ILSW                                   I              100
ILSW                                       I   N=         100
           1           1           0           0           2           0
           0           0           0           0           0          -1
           0           0           0           0           0           0
           0           0           0           0           1           0
           1           1           0           0           0           0
           0           0      100000           0          -1           0
           0           0           0           0           0           0
           0           0           0           1           1           0
           0           0           1           0           0           0
           0           0           4          40           0           0
           0           0           0           0           0           0
           0           0           0           0           0           0
           0           0           0           0           0           0
           0           0           0           0           0           0
           0           0           0           0           0           0
           0           0           0           0           0           0
           0           0           0           0
Num RLSW                                   I               40
RLSW                                       R   N=          40
  1.00000000E+00  1.00000000E+00  1.00000000E+00  1.00000000E+00  1.00000000E+00
  0.00000000E+00  0.00000000E+00  1.00000000E+00  0.00000000E+00  0.00000000E+00
  0.00000000E+00  0.00000000E+00  1.00000000E+00  0.00000000E+00  0.00000000E+00
  0.00000000E+00  0.00000000E+00  1.00000000E+00  0.00000000E+00  0.00000000E+00
  0.00000000E+00  0.00000000E+00  1.00000000E+00  0.00000000E+00  0.00000000E+00
  0.00000000E+00  0.00000000E+00  1.00000000E+00  0.00000000E+00  0.00000000E+00
  0.00000000E+00  0.00000000E+00  1.00000000E+00  0.00000000E+00  0.00000000E+00
  0.00000000E+00  0.00000000E+00  0.00000000E+00  1.00000000E+00  1.00000000E+00
MxBond                                     I                1
NBond                                      I   N=           4
           1           1           0           0
IBond                                      I   N=           4
           2           1           0           0
RBond                                      R   N=           4
  1.00000000E+00  1.00000000E+00  0.00000000E+00  0.00000000E+00
Virial Ratio                               R      2.003149545087524E+00
SCF Energy                                 R     -3.931552088725981E+01
MP2 Energy                                 R     -3.938506369526047E+01
Total Energy                               R     -3.938506369526047E+01
PUHF Energy                                R     -3.932329914860099E+01
PMP2-0 Energy                              R     -3.939260352517702E+01
Post-SCF wavefunction norm                 R      1.437267812611837E+00
S**2                                       R      1.214191222569037E+00
S**2 after annihilation                    R      7.509085788146936E-01
S**2 corrected to first order              R      1.185699570603632E+00
RMS Force                                  R      5.530439944348292E-02
RMS Density                                R      3.554324337563563E-09
External E-field                           R   N=          35
  0.00000000E+00  0.00000000E+00  0.00000000E+00  0.00000000E+00  0.00000000E+00
  0.00000000E+00  0.00000000E+00  0.00000000E+00  0.00000000E+00  0.00000000E+00
  0.00000000E+00  0.00000000E+00  0.00000000E+00  0.00000000E+00  0.00000000E+00
  0.00000000E+00  0.00000000E+00  0.00000000E+00  0.00000000E+00  0.00000000E+00
  0.00000000E+00  0.00000000E+00  0.00000000E+00  0.00000000E+00  0.00000000E+00
  0.00000000E+00  0.00000000E+00  0.00000000E+00  0.00000000E+00  0.00000000E+00
  0.00000000E+00  0.00000000E+00  0.00000000E+00  0.00000000E+00  0.00000000E+00
IOpCl                                      I                1
IROHF                                      I                0
Alpha Orbital Energies                     R   N=          15
 -1.13252391E+01 -9.00885123E-01 -5.10427405E-01 -4.97267733E-01 -4.27852635E-01
  1.13842642E-01  1.78678537E-01  3.03640471E-01  7.13939515E-01  7.62028022E-01
  8.60946218E-01  9.32357626E-01  1.02613407E+00  1.17531187E+00  1.28793229E+00
Beta Orbital Energies                      R   N=          15
 -1.13214494E+01 -8.88583961E-01 -4.94291361E-01 -4.15148877E-01  4.21429085E-02
  1.63532820E-01  1.85255767E-01  3.09177646E-01  7.23827249E-01  8.17330754E-01
  8.47366602E-01  9.76096836E-01  1.14077562E+00  1.17922893E+00  1.29567165E+00
Alpha MO coefficients                      R   N=         225
  9.96463815E-01  2.24095789E-02  1.69556300E-03 -2.94269746E-04  1.11696211E-03
 -1.12316067E-02 -3.04798270E-03 -4.59460369E-04 -1.56574154E-03 -1.69378664E-04
  4.57212297E-03  1.43608943E-04  8.00725589E-04  3.38289626E-04  1.70560506E-03
 -1.89275432E-01  3.86025116E-01  1.66641159E-01 -5.85752270E-02  1.53304148E-02
  3.72423388E-01  4.03735880E-02 -1.54913008E-02  1.82959978E-02  2.51685679E-01
  8.28478207E-02  4.37508654E-02  3.54657981E-02  7.96811034E-02  4.14328397E-02
  4.87459693E-02 -6.91578195E-02  3.95779491E-01  6.86044712E-02 -8.63069182E-02
 -2.80312525E-01  1.63738113E-01  5.00904572E-02 -4.97102678E-02  2.44095031E-01
  2.36739161E-01 -2.08135199E-01 -3.29393161E-01 -1.24036495E-01 -1.71746307E-01
  6.51189365E-02 -1.43461893E-01  2.14656651E-01  2.00310502E-01  1.99591421E-02
 -2.75791959E-01  1.12681676E-01  1.40205470E-01  2.09880192E-02  8.27752841E-02
  9.64532738E-02  3.42340788E-01  5.21997350E-01 -4.89023612E-02 -6.38171010E-02
  5.14559364E-02 -1.31301473E-01  1.24459009E-01  1.51978283E-01  3.88957112E-01
 -1.86959766E-01  1.05718844E-01  1.27036176E-01  2.94215909E-01  9.84397486E-03
 -8.93932477E-03 -8.73504803E-02 -1.71392457E-01  2.32799162E-01  3.33026702E-01
 -6.87802121E-02  7.44974028E-02 -8.52267274E-02  4.14891767E-01 -2.49782598E-02
  4.55111924E-01 -9.57846138E-02  6.97843611E-01 -2.74822398E-02 -1.05983238E-02
 -1.60805136E-01 -1.13631518E-01 -4.56855299E-01 -2.63987632E-02 -1.66549814E-01
  6.78994203E-02 -8.87463028E-02  1.53391193E-02  5.65906285E-02 -3.80016240E-01
 -7.37587207E-01 -7.94381345E-02  6.35161133E-02 -7.87730225E-01 -3.78817476E-02
  3.16896418E-01 -4.16179223E-02 -1.90998351E-02  1.51188336E-01  1.16977334E+00
  7.15060567E-02 -5.13954137E-02 -2.90223854E-01  3.75464314E-02  8.93861999E-02
 -1.68199081E+00 -1.25081398E+00 -1.52685396E-03  9.20453538E-02  2.46112287E-02
  2.51127380E+00 -5.60531573E-02  1.89447591E-02 -7.06281868E-02 -1.15533226E-01
 -4.74424844E-02  1.99494664E-01 -7.81161909E-01 -3.13462228E-01 -9.70517325E-02
  4.32906148E-01  1.37963852E+00  4.08462211E-01  1.49914307E-01 -4.08407582E-01
 -4.01656346E-01  1.11043970E-01 -2.52674538E-01  1.54571667E-01 -2.46616361E-01
 -7.04790559E-03 -5.43882779E-01 -1.19716335E-01  6.25435466E-01  6.96925493E-01
  1.04692232E+00  6.86503403E-01 -6.48171317E-01 -7.46021461E-01 -3.61049670E-01
 -5.18358250E-01 -1.22018554E-01  2.11010101E-01  6.98415563E-02  1.88616063E-02
 -2.03096511E-02 -1.27968050E-02 -1.58545570E-01  7.98238512E-01 -7.82248630E-01
  3.26050991E-01  2.75028197E-01 -8.27754675E-01  9.91942326E-01 -7.39981475E-02
 -1.51080780E-01 -1.13609871E-01  3.71318265E-01  2.86285027E-03 -4.92682182E-01
  1.23591277E-02 -8.46243251E-01  9.63910425E-02  2.20275855E-03 -1.60613642E-01
  1.34385435E+00 -4.99969451E-02  1.89417399E-01  3.15829364E-01 -2.87977677E-02
 -6.45040510E-02  9.73800698E-01 -1.11242053E+00  5.70608300E-01 -8.61975393E-01
 -1.56898583E-02  6.74871570E-01 -2.11378099E-01  2.96335521E-01  2.16826894E-01
 -1.07218078E+00 -7.63691150E-03 -1.93713085E-01 -4.74274145E-01  2.38497664E-01
  4.06951868E-02  7.98912900E-01 -6.35017152E-01 -7.80019184E-01  1.21537478E+00
 -2.57193976E-02 -1.26243641E+00  1.84389743E-01 -2.78518805E-01 -2.66136620E-01
  2.24542264E+00  6.50341336E-01  4.17128583E-01  5.71168631E-01 -5.71693515E-01
 -7.47537445E-01  1.66838082E-02 -4.34607381E-01 -8.85688066E-01  1.58117548E-01
 -4.01965453E-02  1.08311201E+00  7.79644980E-01  4.44443412E-02 -1.45677488E-03
 -1.87638658E+00 -9.84008666E-01 -2.74058827E-02 -2.53978512E-02 -1.13824804E+00
  1.98871994E+00  1.81708937E-01 -1.18705833E-01  1.41363269E-01 -6.60996454E-02
Beta MO coefficients                       R   N=         225
  9.96485757E-01  2.22853289E-02  1.77464119E-03  3.94276137E-04  1.17797384E-03
 -1.11317813E-02 -2.97963622E-03 -3.55282549E-04 -1.52509381E-03 -2.36043159E-04
  4.51530102E-03  1.10055441E-04  7.65872206E-04  3.11878376E-04  1.67291740E-03
 -1.87892710E-01  3.81439882E-01  1.82436293E-01  5.48221465E-02  2.61690676E-02
  3.71270961E-01  4.54077074E-02  2.92345649E-02  2.30957812E-02  2.55829472E-01
  8.70235388E-02  1.36187593E-02  7.29268945E-04  8.04235273E-02  4.19792190E-02
  6.41595792E-02 -9.52708755E-02  4.07029994E-01 -1.60811793E-01 -1.29997990E-01
 -3.60631238E-01  1.66099907E-01 -1.10675802E-01 -7.81764116E-02  2.48494320E-01
  2.66945887E-01 -2.70455724E-02 -4.34051906E-02 -1.63802590E-01 -2.25860594E-01
  5.93798980E-02 -1.34219203E-01  1.43469249E-01 -2.57677228E-01  3.44285572E-01
 -2.54917549E-01  1.06278814E-01 -2.04951652E-01  2.59631370E-01  2.62915361E-02
  2.64893933E-02 -3.93057538E-02 -7.70284908E-02  2.12092921E-01  3.21710469E-01
  8.23364554E-02 -1.12475763E-01  1.33477001E-01  2.20242214E-01  7.27087856E-02
 -4.89298023E-01  1.27365281E-01  3.18480688E-01  8.02890931E-02  3.33725929E-02
  1.59950538E-01  1.42062272E-01  4.96716133E-01  4.28686561E-02  1.65871828E-01
  1.17643545E-02 -6.29977824E-02 -3.98491680E-02 -3.46100769E-01 -5.24592891E-02
 -1.91827026E-01 -1.73892320E-01 -5.79992318E-01 -1.67278483E-01 -5.14583682E-02
  1.99009891E-01  1.40509818E-01  8.12706077E-01 -3.16989550E-02  8.94871350E-02
  6.59858748E-02 -7.88880831E-02  1.24445916E-02  4.43783978E-02 -3.81677768E-01
 -7.34620205E-01 -8.11379686E-02  3.15803866E-02 -7.86617435E-01 -2.98007597E-02
  3.27352568E-01 -5.07585783E-02 -1.26536803E-01  1.48536196E-01  1.16451275E+00
  6.96239550E-02 -4.38764701E-02 -2.93533083E-01  4.88490335E-02  9.05037560E-02
 -1.66437435E+00 -1.23867294E+00  2.39544241E-02  1.12658336E-01  2.30546519E-02
  2.50620428E+00 -4.92876584E-02 -7.54931053E-02 -6.61083951E-02 -1.29085475E-01
 -4.35398401E-02 -3.34183175E-02 -7.43708317E-01  2.55216981E-01  9.46496238E-02
  8.02242410E-01  1.53503213E+00 -3.03994672E-01 -3.84769918E-02 -5.15276151E-01
 -6.01385773E-01  1.65928805E-02  4.20120644E-02  1.41129255E-01 -2.47954873E-01
 -6.14338042E-03  3.30236700E-01 -5.62056936E-02  5.07533951E-01 -9.31044300E-01
 -4.29721440E-01 -1.23867373E-01 -6.36661160E-01  1.10870249E+00  1.35414627E-01
  1.44913945E-01 -3.05464106E-02  3.17367226E-01 -9.37307376E-02 -2.93178825E-01
 -3.42138740E-02  3.79863235E-01 -3.26608049E-01 -9.42228814E-01 -4.57970028E-01
 -2.43784148E-01  2.02590890E-01  9.51925754E-01  4.58740633E-01  1.01619603E-02
  1.15413114E-01  1.59275281E-01 -3.80620152E-01  1.26088535E-01 -2.28903834E-01
  1.95178283E-02 -1.15148861E+00  1.88445733E-01  1.75095292E-02 -2.91592204E-01
  1.85531141E+00  3.55902607E-02  1.11050156E-01  5.91486651E-01 -1.61905724E-01
 -1.78219862E-01  3.10583330E-01 -4.33013066E-01  8.98113371E-01 -1.43894418E+00
  1.39568128E-03 -9.81959126E-02 -1.85342696E-01  1.34584617E-01  9.63233577E-02
  1.64497711E-01  1.04830931E-01  3.31166024E-02 -1.95733679E-01  2.86205409E-01
 -2.69409484E-01  1.25028581E+00 -1.06511874E+00 -3.47363576E-01  5.04716419E-01
 -2.87954754E-02 -1.26055006E+00  1.67463001E-01 -2.09450366E-01 -2.91838412E-01
  2.27760340E+00  6.86079208E-01  3.71359745E-01  6.02757656E-01 -5.85027935E-01
 -7.72174943E-01 -4.48936008E-02 -3.83580264E-01 -8.83201063E-01  1.34511164E-01
 -3.88273067E-02  1.05144642E+00  7.72725799E-01  3.69456901E-02  6.14746918E-03
 -1.83119501E+00 -9.75944850E-01 -1.06119648E-02 -3.89922198E-02 -1.11687347E+00
  1.96163925E+00  3.34901657E-01 -2.40385338E-01  1.20914716E-01 -3.60043636E-02
Total SCF Density                          R   N=         120
  2.07395964E+00 -1.33749449E-01  3.65206128E-01  1.19475302E-02  1.45131643E-03
  4.65524071E-01 -5.24250144E-04 -5.22848325E-03 -1.31179847E-02  1.66623023E-01
  2.36779805E-02 -6.58387990E-02  2.23492326E-02 -1.00825249E-02  2.95489396E-01
 -2.42052757E-01  4.36954578E-01 -2.47016350E-01  1.93296633E-02 -7.95145277E-02
  6.61419489E-01  1.55469962E-02 -3.86886552E-02  2.00006566E-01 -4.10081791E-03
  4.60353090E-02 -1.51770830E-01  9.32782239E-02 -4.53512520E-03  2.94728554E-03
 -5.97047379E-03  1.23947248E-01 -7.76079131E-03  2.07934840E-02 -2.03034264E-03
  9.36541081E-02  1.36013651E-02 -4.98003978E-02  3.41347209E-02 -8.62687259E-03
  2.19578059E-01 -6.94289768E-02  4.17346031E-02 -6.33792453E-03  1.63867544E-01
 -6.08105036E-02  1.37479693E-01  3.09130980E-01 -1.26301758E-02 -2.82852504E-02
 -6.88850796E-04  1.16184031E-01 -4.22759509E-03 -9.58672548E-03  2.57766191E-01
  1.30843490E-02  7.35513177E-03  2.55441532E-01 -1.56319525E-02 -4.40087874E-02
 -1.31250169E-01  1.03110647E-01 -9.47049320E-03 -2.28538744E-02  1.75826741E-01
  1.51868520E-01 -7.00384870E-03  6.69214969E-03 -2.66333067E-02  5.36814123E-02
 -1.81683892E-02  2.13795540E-02 -1.10243483E-02  3.72451381E-02 -1.51444614E-02
 -1.65858716E-02 -1.89229282E-02  1.72523629E-01 -3.53139242E-03 -1.12470738E-03
 -6.23208005E-02  8.07069599E-02 -4.81294116E-02  2.91645623E-02 -2.71699122E-02
  5.49766767E-02 -3.90389221E-02 -4.25805930E-02 -3.67182027E-02  2.67993880E-01
  4.19433444E-01 -2.47120933E-02  3.36156985E-02 -3.89066714E-02 -1.14931504E-02
  1.97919486E-01  6.92646630E-02  9.91645534E-04 -7.71880283E-03  1.44818499E-01
 -2.65315242E-02 -6.06672701E-02 -1.05848995E-02 -3.09123512E-02  1.56603872E-01
 -3.14262275E-03 -1.22735919E-02 -7.14319242E-02 -2.06547779E-02  2.84941575E-01
  3.39014757E-02  1.39136641E-04 -1.55976911E-02  2.08085391E-01 -7.04265145E-02
 -9.44609674E-02 -1.93424742E-02 -4.72932036E-02  2.13859647E-01  3.02471477E-01
Spin SCF Density                           R   N=         120
  2.09972480E-03 -6.65900527E-03  1.90374222E-02  7.69949475E-03 -2.17358722E-02
  2.64380866E-02  7.05282610E-02 -1.46880587E-01  1.71725481E-01 -2.39041966E-02
  6.95821461E-03 -1.82057289E-02  1.98340533E-02  1.22665941E-01  2.32529153E-02
 -3.79936703E-03  1.70706588E-02 -1.57223154E-02 -2.68729707E-01 -1.71537356E-02
 -4.58828976E-03  4.61343024E-03 -1.30181895E-02  1.77383421E-02  9.91157438E-02
  1.36705575E-02 -1.15679940E-02  1.13680169E-02  4.57007081E-02 -9.54445928E-02
  1.32269157E-01 -2.04765700E-02  1.03058493E-01 -1.85240164E-01  7.56431087E-02
 -1.65640892E-02  4.51765427E-03 -1.25525669E-02  1.48551696E-02  9.75008151E-02
  1.92726396E-02 -1.06290440E-02  1.04116227E-02  8.14298840E-02  1.57560629E-02
  7.87949688E-04 -3.27071247E-03  5.95331950E-03  5.27908632E-02  4.82959933E-03
  1.97576313E-03  4.81113145E-03  4.65957142E-02  3.79596493E-03  1.98729900E-03
 -6.12486627E-04 -1.25950768E-03 -1.23778980E-03  7.43303727E-02  2.59095052E-03
  1.02750059E-02  9.24579333E-04  5.53915144E-02  1.12293294E-03 -2.75946636E-03
 -7.24203679E-03  6.03295353E-03 -1.94067160E-02  1.69224309E-03  2.32332170E-02
  1.15163881E-03 -2.82769049E-02  5.07878617E-03  1.43508001E-02  4.08164321E-04
 -8.04582009E-03 -4.77244757E-03  1.67599853E-01  9.93390011E-03 -3.06630936E-02
 -5.15274049E-03  2.69692868E-02 -6.41496356E-03 -4.19382628E-02  3.56061252E-03
  1.37525398E-02 -5.85877098E-03 -1.73310871E-02 -9.59749594E-03  2.59570686E-01
  4.03796409E-01  7.19229385E-04 -2.02903033E-03  4.23539136E-03  3.63088784E-02
  5.08045421E-03 -4.58480626E-04  3.02302966E-03  3.82587483E-02  5.36161338E-03
  2.57473503E-03  1.54886311E-03 -4.96283079E-03 -1.25754998E-02  3.83989765E-05
  7.44506077E-05 -1.04967937E-03  4.79802518E-03  6.78939507E-02  2.49712803E-03
  3.88190786E-03  2.98557862E-03  6.38245889E-02  3.78520659E-03  3.42885683E-03
  1.75884723E-03 -7.41316531E-03 -1.74022948E-02 -3.35175648E-03 -1.00798973E-02
Total MP2 Density                          R   N=         120
  2.07330970E+00 -1.31347022E-01  3.75051722E-01  1.06866208E-02  8.93158267E-03
  4.70553733E-01 -7.78996383E-06 -7.97368893E-03 -1.68264908E-02  1.57969150E-01
  1.98051480E-02 -4.89708986E-02  1.07026550E-02 -1.62980238E-02  3.35116740E-01
 -2.43254952E-01  4.17379232E-01 -2.51009142E-01  1.98656793E-02 -8.07282307E-02
  7.03359751E-01  1.62643674E-02 -3.66423647E-02  1.85289051E-01 -5.25858642E-03
  4.15211402E-02 -1.57479169E-01  9.34899566E-02 -3.98146566E-03 -3.27212697E-05
 -8.53966151E-03  1.16298092E-01 -1.17586506E-02  2.20266391E-02 -3.01802298E-03
  9.41602622E-02  1.30934834E-02 -3.74847075E-02  3.13715442E-02 -1.18564401E-02
  2.16150406E-01 -8.26081206E-02  4.05472181E-02 -8.85004485E-03  1.50742810E-01
 -5.94327372E-02  1.32892336E-01  2.98301989E-01 -1.57350787E-02 -2.84464303E-02
 -1.10890145E-02  1.07206861E-01 -7.04200348E-03 -4.50803128E-03  2.60650628E-01
  1.37966623E-02  7.81552600E-03  2.65059948E-01 -1.80774255E-02 -4.01621235E-02
 -1.52405302E-01  1.06982483E-01 -1.16083330E-02 -1.05075544E-02  1.87133265E-01
  1.77963587E-01 -1.00977975E-02  1.14344095E-02 -3.31114450E-02  7.13376860E-02
 -2.37261784E-02  3.56407862E-02 -1.43492949E-02  5.09115061E-02 -1.81632415E-02
 -1.86695478E-02 -2.25551366E-02  1.65487710E-01 -9.35886833E-03  7.57734561E-03
 -7.37114065E-02  1.14464334E-01 -5.69739495E-02  5.63668203E-02 -3.37687992E-02
  8.10059912E-02 -4.31895615E-02 -4.67764633E-02 -4.58385184E-02  2.59049257E-01
  4.12373956E-01 -2.38799664E-02  3.78568292E-02 -3.95110320E-02 -1.53184548E-02
  2.00997972E-01  5.72954594E-02  1.65530645E-03 -1.07564310E-02  1.33013756E-01
 -2.57780691E-02 -5.82867242E-02 -1.20337338E-02 -3.28496493E-02  1.69918069E-01
 -4.26298089E-04 -5.43302441E-03 -6.89493731E-02 -2.53779573E-02  2.80866015E-01
  8.29538112E-03  1.66596533E-03 -1.98842375E-02  1.87831401E-01 -6.71838100E-02
 -8.93486049E-02 -2.08280617E-02 -4.88441924E-02  2.16819882E-01  3.03385653E-01
Spin MP2 Density                           R   N=         120
  3.13972941E-03 -8.90003846E-03  2.42331285E-02  1.05683996E-02 -2.77778331E-02
  3.54954726E-02  6.40958766E-02 -1.30335461E-01  1.54657782E-01 -2.41517026E-02
  9.60870149E-03 -2.35530407E-02  2.65045862E-02  1.17307297E-01  3.20974793E-02
 -8.01315680E-03  2.60328270E-02 -2.73178688E-02 -2.53698792E-01 -2.86369566E-02
  1.16934662E-02  6.12947776E-03 -1.57821014E-02  2.23124177E-02  8.64978426E-02
  1.64803187E-02 -1.87679260E-02  1.44268894E-02  4.47275795E-02 -8.46780603E-02
  1.19844117E-01 -2.11264264E-02  9.45943382E-02 -1.94661061E-01  7.22940020E-02
 -1.87051704E-02  6.30556913E-03 -1.55910962E-02  1.88563995E-02  8.63528457E-02
  2.42794411E-02 -1.95290275E-02  1.26955941E-02  7.41699526E-02  1.91195876E-02
  1.49734025E-03 -4.61251127E-03  7.66705848E-03  4.69995479E-02  6.62925126E-03
 -6.55570032E-04  6.14178788E-03  4.37273859E-02  4.99819057E-03  1.84027060E-03
  5.81820711E-04 -4.20214893E-03  1.43838415E-03  7.50030893E-02  6.54659067E-03
  7.06181930E-03  3.23942192E-03  6.27116734E-02  4.01538393E-03 -3.11584953E-03
 -8.49138292E-03  7.75176950E-03 -2.18012708E-02  6.05047985E-03  2.92279394E-02
  3.85089902E-03 -3.70579641E-02  8.58712283E-03  1.71915789E-02  4.14047390E-03
 -5.59681213E-03 -2.12488849E-05  1.55256011E-01  1.40235580E-02 -3.74815749E-02
  6.34935660E-03  3.60827260E-02  1.75236735E-03 -6.18467613E-02  1.15550075E-02
  1.78485864E-02  3.30855652E-03 -1.18598503E-02 -7.17234331E-04  2.41695332E-01
  3.79701310E-01  1.32184801E-03 -3.20126441E-03  5.83894559E-03  3.45712017E-02
  6.62399100E-03 -3.40356621E-03  3.56272483E-03  3.48792629E-02  6.40605808E-03
  3.16360609E-03  3.01825423E-03 -2.96309683E-03 -7.61150410E-03 -3.37811229E-04
  9.79312124E-04 -3.19328393E-03  7.57471329E-03  6.37652019E-02  4.50668640E-03
 -2.79813996E-04  3.90937038E-03  5.99337594E-02  5.52082347E-03  4.37067429E-03
  3.67864613E-03 -2.06202307E-03 -5.95281425E-03 -4.17280242E-03 -1.15144404E-02
Anisotropic Hyperfine tensors              R   N=          24
  7.91239178E-02  7.12780760E-01 -1.43403356E-01  1.21567377E-01  5.42034540E-01
  6.42794384E-02  9.32849104E-03  4.42692934E-03  2.10175316E-03  1.13795624E-03
  2.76799238E-02 -1.14302442E-02  9.46001116E-03 -7.41847591E-03 -1.88040810E-02
  3.91678791E-04 -5.60409736E-03  9.34406979E-03 -1.03082621E-02  8.08437101E-03
  1.62381529E-03 -3.82814903E-04 -4.39983381E-03  8.68444680E-03
Isotropic Hyperfine splittings             R   N=           4
  1.73511731E-01  4.39604113E-03  2.53480231E-01 -4.27440352E-04
QEq coupling tensors                       R   N=          24
  6.29883658E-01 -8.73859869E-02 -7.38298920E-01  4.58331371E-02 -8.55391229E-02
  1.08415261E-01 -5.45404514E-01  8.08642033E-03  2.52548486E-01  2.40887377E-02
 -6.17059943E-03  2.92856028E-01  1.88495105E-03  1.02839086E-02 -4.86445651E-03
  1.56005917E-04  5.99948024E-03  2.97950546E-03  2.03931387E-02 -1.47981873E-03
  1.44968294E-02  1.78745126E-02  3.83688108E-03 -3.48899681E-02
Mulliken Charges                           R   N=           4
 -1.95496091E-01  1.59691963E-01  1.93776325E-02  1.64264951E-02
ONIOM Charges                              I   N=          16
           0           0           0           0           0           0
           0           0           0           0           0           0
           0           0           0           0
ONIOM Multiplicities                       I   N=          16
           2           0           0           0           0           0
           0           0           0           0           0           0
           0           0           0           0
Atom Layers                                I   N=           4
           1           1           1           1
Atom Modifiers                             I   N=           4
           0           0           0           0
Force Field                                I                0
Int Atom Modified Types                    I   N=           4
           0           0           0           0
Link Atoms                                 I   N=           4
           0           0           0           0
Atom Modified MM Charges                   R   N=           4
  0.00000000E+00  0.00000000E+00  0.00000000E+00  0.00000000E+00
Link Distances                             R   N=          16
  0.00000000E+00  0.00000000E+00  0.00000000E+00  0.00000000E+00  0.00000000E+00
  0.00000000E+00  0.00000000E+00  0.00000000E+00  0.00000000E+00  0.00000000E+00
  0.00000000E+00  0.00000000E+00  0.00000000E+00  0.00000000E+00  0.00000000E+00
  0.00000000E+00
Cartesian Gradient                         R   N=          12
  7.52755078E-02 -4.77577138E-02 -1.06906011E-01 -9.69625423E-02  1.38106038E-02
  2.21723472E-02  6.90496921E-03  2.59770288E-02  5.97775938E-03  1.47820653E-02
  7.97008117E-03  7.87559043E-02
Cartesian Force Constants                  R   N=          78
  6.51931819E-01 -3.08208067E-02 -1.16290065E-01 -2.30677239E-02 -3.08743517E-02
 -3.96950150E-02 -6.02824959E-01  1.38059730E-02  2.28789215E-02  6.10165656E-01
  4.50312934E-03  5.21454272E-02  6.00934954E-03 -8.26338895E-03 -3.62705203E-02
 -1.51131640E-03  1.62896492E-02  3.56103286E-02 -2.20276097E-02 -5.64003131E-03
 -1.17719756E-02 -1.03846123E-02  6.15535153E-03  3.00463088E-03 -4.77564201E-04
  7.52012095E-03 -2.81995705E-03  1.06332893E-02  2.21503739E-02  9.38637798E-02
  1.94832651E-02 -4.92410085E-03 -2.34934777E-02 -5.47900265E-03 -1.35736485E-02
 -5.85261164E-02  3.12549226E-03  5.99695622E-03 -8.59980873E-03 -4.63874928E-04
 -1.52746451E-04 -2.23891500E-04 -7.63729776E-05 -1.04648327E-02  1.03386832E-02
 -3.87222483E-02  1.08594822E-02 -2.81582853E-03 -6.86313278E-03 -3.75986134E-03
  2.63588831E-02  2.28887166E-04 -3.65262453E-03 -2.58524436E-03  4.53564939E-02
  4.16730352E-03 -2.97191416E-02  5.38173714E-03 -6.18483233E-04  7.61857075E-03
 -5.17061523E-03 -1.01823968E-04 -1.18441857E-02  4.62062297E-03 -3.44699632E-03
  3.39447565E-02  2.14535480E-02  8.58774633E-03  1.26844951E-02 -3.87436886E-04