CH3 B2PLYP Frequency                                                    
Freq      UB2PLYP-Full                                                6-31G               
Number of atoms                            I                4
Info1-9                                    I   N=           9
          12          11           0           0           0         100
           6           2        -702
Charge                                     I                0
Multiplicity                               I                2
Number of electrons                        I                9
Number of alpha electrons                  I                5
Number of beta electrons                   I                4
Number of basis functions                  I               15
Number of independent functions            I               15
Number of point charges in /Mol/           I                0
Number of translation vectors              I                0
Atomic numbers                             I   N=           4
           6           1           1           1
Nuclear charges                            R   N=           4
  6.00000000E+00  1.00000000E+00  1.00000000E+00  1.00000000E+00
Current cartesian coordinates              R   N=          12
  0.00000000E+00  0.00000000E+00  0.00000000E+00  1.88972613E+00  0.00000000E+00
  0.00000000E+00  0.00000000E+00  3.77945227E+00  0.00000000E+00  0.00000000E+00
  0.00000000E+00  2.83458920E+00
Force Field                                I                0
Int Atom Types                             I   N=           4
           0           0           0           0
MM charges                                 R   N=           4
  0.00000000E+00  0.00000000E+00  0.00000000E+00  0.00000000E+00
Integer atomic weights                     I   N=           4
          12           1           1           1
Real atomic weights                        R   N=           4
  1.20000000E+01  1.00782504E+00  1.00782504E+00  1.00782504E+00
Atom fragment info                         I   N=           4
           0           0           0           0
Atom residue num                           I   N=           4
           0           0           0           0
Nuclear spins                              I   N=           4
           0           1           1           1
Nuclear ZEff                               R   N=           4
 -3.60000000E+00 -1.00000000E+00 -1.00000000E+00 -1.00000000E+00
Nuclear QMom                               R   N=           4
  0.00000000E+00  0.00000000E+00  0.00000000E+00  0.00000000E+00
Nuclear GFac                               R   N=           4
  0.00000000E+00  2.79284600E+00  2.79284600E+00  2.79284600E+00
MicOpt                                     I   N=           4
          -1          -1          -1          -1
Number of contracted shells                I                9
Number of primitive shells                 I               22
Pure/Cartesian d shells                    I                1
Pure/Cartesian f shells                    I                0
Highest angular momentum                   I                1
Largest degree of contraction              I                6
Shell types                                I   N=           9
           0          -1          -1           0           0           0
           0           0           0
Number of primitives per shell             I   N=           9
           6           3           1           3           1           3
           1           3           1
Shell to atom map                          I   N=           9
           1           1           1           2           2           3
           3           4           4
Primitive exponents                        R   N=          22
  3.04752488E+03  4.57369518E+02  1.03948685E+02  2.92101553E+01  9.28666296E+00
  3.16392696E+00  7.86827235E+00  1.88128854E+00  5.44249258E-01  1.68714478E-01
  1.87311370E+01  2.82539436E+00  6.40121692E-01  1.61277759E-01  1.87311370E+01
  2.82539436E+00  6.40121692E-01  1.61277759E-01  1.87311370E+01  2.82539436E+00
  6.40121692E-01  1.61277759E-01
Contraction coefficients                   R   N=          22
  1.83473713E-03  1.40373228E-02  6.88426223E-02  2.32184443E-01  4.67941348E-01
  3.62311985E-01 -1.19332420E-01 -1.60854152E-01  1.14345644E+00  1.00000000E+00
  3.34946043E-02  2.34726953E-01  8.13757326E-01  1.00000000E+00  3.34946043E-02
  2.34726953E-01  8.13757326E-01  1.00000000E+00  3.34946043E-02  2.34726953E-01
  8.13757326E-01  1.00000000E+00
P(S=P) Contraction coefficients            R   N=          22
  0.00000000E+00  0.00000000E+00  0.00000000E+00  0.00000000E+00  0.00000000E+00
  0.00000000E+00  6.89990666E-02  3.16423961E-01  7.44308291E-01  1.00000000E+00
  0.00000000E+00  0.00000000E+00  0.00000000E+00  0.00000000E+00  0.00000000E+00
  0.00000000E+00  0.00000000E+00  0.00000000E+00  0.00000000E+00  0.00000000E+00
  0.00000000E+00  0.00000000E+00
Coordinates of each shell                  R   N=          27
  0.00000000E+00  0.00000000E+00  0.00000000E+00  0.00000000E+00  0.00000000E+00
  0.00000000E+00  0.00000000E+00  0.00000000E+00  0.00000000E+00  1.88972613E+00
  0.00000000E+00  0.00000000E+00  1.88972613E+00  0.00000000E+00  0.00000000E+00
  0.00000000E+00  3.77945227E+00  0.00000000E+00  0.00000000E+00  3.77945227E+00
  0.00000000E+00  0.00000000E+00  0.00000000E+00  2.83458920E+00  0.00000000E+00
  0.00000000E+00  2.83458920E+00
Constraint Structure                       R   N=          12
  0.00000000E+00  0.00000000E+00  0.00000000E+00  1.88972613E+00  0.00000000E+00
  0.00000000E+00  0.00000000E+00  3.77945227E+00  0.00000000E+00  0.00000000E+00
  0.00000000E+00  2.83458920E+00
Num ILSW                                   I              100
ILSW                                       I   N=         100
           1           1           0           0           2           0
           0           0           0           0         419          -1
       99590           0           0           0           0           0
           0           0           0           0           1           0
           1           1           0           0           0           0
           0           0      100000           0          -1           0
           0           0           0           0           0           0
           0           0           0           1           1           0
           0           0           1           0           0           0
           0           0           4          40           0           0
           0           0          47           0           0           0
           0           0           0           0           0           0
           0           0           0           0           0           0
           0           0           0           0           0           0
           0           0           0           0           0           0
           0           0           0           0           0           0
           0           0           0           0
Num RLSW                                   I               40
RLSW                                       R   N=          40
  4.70000000E-01  4.70000000E-01  7.30000000E-01  7.30000000E-01  5.30000000E-01
  0.00000000E+00  0.00000000E+00  1.00000000E+00  0.00000000E+00  0.00000000E+00
  0.00000000E+00  0.00000000E+00  1.00000000E+00  0.00000000E+00  0.00000000E+00
  0.00000000E+00  0.00000000E+00  1.00000000E+00  0.00000000E+00  0.00000000E+00
  0.00000000E+00  0.00000000E+00  1.00000000E+00  0.00000000E+00  0.00000000E+00
  0.00000000E+00  0.00000000E+00  1.00000000E+00  0.00000000E+00  0.00000000E+00
  0.00000000E+00  0.00000000E+00  1.00000000E+00  0.00000000E+00  0.00000000E+00
  0.00000000E+00  0.00000000E+00  0.00000000E+00  2.70000000E-01  2.70000000E-01
MxBond                                     I                1
NBond                                      I   N=           4
           1           1           0           0
IBond                                      I   N=           4
           2           1           0           0
RBond                                      R   N=           4
  1.00000000E+00  1.00000000E+00  0.00000000E+00  0.00000000E+00
Virial Ratio                               R      2.008077041080979E+00
SCF Energy                                 R     -3.949615614343999E+01
MP2 Energy                                 R     -3.952341772177146E+01
Total Energy                               R     -3.952341772177146E+01
Post-SCF wavefunction norm                 R      1.461925785331715E+00
S**2                                       R      1.057474910903199E+00
S**2 after annihilation                    R      7.503235246460325E-01
RMS Force                                  R      5.774703572579955E-02
RMS Density                                R      6.255319051789792E-09
External E-field                           R   N=          35
  0.00000000E+00  0.00000000E+00  0.00000000E+00  0.00000000E+00  0.00000000E+00
  0.00000000E+00  0.00000000E+00  0.00000000E+00  0.00000000E+00  0.00000000E+00
  0.00000000E+00  0.00000000E+00  0.00000000E+00  0.00000000E+00  0.00000000E+00
  0.00000000E+00  0.00000000E+00  0.00000000E+00  0.00000000E+00  0.00000000E+00
  0.00000000E+00  0.00000000E+00  0.00000000E+00  0.00000000E+00  0.00000000E+00
  0.00000000E+00  0.00000000E+00  0.00000000E+00  0.00000000E+00  0.00000000E+00
  0.00000000E+00  0.00000000E+00  0.00000000E+00  0.00000000E+00  0.00000000E+00
IOpCl                                      I                1
IROHF                                      I                0
Alpha Orbital Energies                     R   N=          15
 -1.07184696E+01 -7.70666537E-01 -4.22556989E-01 -3.85892153E-01 -3.55412291E-01
 -5.26940842E-05  8.58391231E-02  2.18928925E-01  5.98930392E-01  6.34064898E-01
  7.06018572E-01  8.10264773E-01  8.91058720E-01  1.03063260E+00  1.12182509E+00
Beta Orbital Energies                      R   N=          15
 -1.07128454E+01 -7.57568241E-01 -4.08398019E-01 -3.33170482E-01 -7.61894947E-02
  4.17402974E-02  9.38836179E-02  2.24106136E-01  6.10704162E-01  6.84378155E-01
  6.88971341E-01  8.40125758E-01  9.82341628E-01  1.03562097E+00  1.12977436E+00
Alpha MO coefficients                      R   N=         225
  9.95814402E-01  2.82714946E-02  1.87990962E-03 -2.20286688E-04  1.02894066E-03
 -1.60872502E-02 -3.98324065E-03 -6.15850302E-04 -1.92440277E-03 -8.02025341E-04
  6.48673784E-03  1.52270029E-04  1.19997215E-03  3.35049117E-04  2.29716270E-03
 -1.91134713E-01  3.90140483E-01  1.73215948E-01 -4.20153985E-02  2.33552621E-02
  3.69343480E-01  4.15894718E-02 -9.60996143E-03  2.07759759E-02  2.50975746E-01
  8.37247511E-02  3.92538263E-02  3.01110561E-02  8.08964064E-02  3.83372576E-02
  5.94927715E-02 -9.46614616E-02  4.24168122E-01  6.33500915E-02 -1.43009099E-01
 -3.19327418E-01  1.61388107E-01  4.20645686E-02 -7.66962590E-02  2.51578353E-01
  2.57515209E-01 -1.00762797E-01 -1.55496993E-01 -1.69022551E-01 -2.20408269E-01
  4.78536442E-02 -1.14676561E-01  1.03826242E-01  2.21611465E-01  2.58102005E-02
 -1.86222349E-01  5.83540561E-02  1.58862735E-01  2.09101456E-02  1.84419499E-02
  4.19468866E-02  3.69666571E-01  5.59671211E-01 -2.48602534E-02 -2.56592950E-02
  6.85401477E-02 -1.51311336E-01  1.94215584E-01  1.35334164E-01  3.95011013E-01
 -2.79797678E-01  1.26227088E-01  1.03998038E-01  2.71941794E-01  4.94378545E-02
  4.53450554E-02 -8.83008296E-02 -1.61579518E-01  2.20840168E-01  3.01578625E-01
 -6.09478433E-02  8.78115474E-02 -8.69613999E-02  4.91189359E-01 -4.08427326E-02
  3.56050125E-01 -7.29277160E-02  6.17417985E-01 -3.89445710E-02 -9.98783528E-03
 -1.20045000E-01 -1.61362544E-01 -4.82024287E-01 -1.81061331E-02 -9.80146807E-02
  6.88194376E-02 -1.04367516E-01  2.67974159E-02  4.06487781E-02 -4.30275793E-01
 -6.78193596E-01 -4.88288263E-02  2.38848615E-02 -7.13612689E-01 -3.42860832E-02
  2.63589181E-01 -3.51736211E-02 -2.45574268E-03  1.92129783E-01  1.11203169E+00
  7.40281551E-02 -7.91854105E-02 -3.33488162E-01  3.93497736E-02  8.90814163E-02
 -1.63817404E+00 -1.18200744E+00 -1.25033614E-02  5.85344773E-02  4.92257124E-02
  2.44248348E+00 -5.66731022E-02  1.90956074E-02 -7.53590665E-02 -7.20184151E-02
 -4.84782423E-02  2.37351749E-01 -7.82098820E-01 -3.34494895E-01 -1.57107886E-01
  4.02021045E-01  1.37089297E+00  4.27104693E-01  2.17930078E-01 -3.53113158E-01
 -4.44865403E-01  1.12307617E-01 -2.47605978E-01  1.56987828E-01 -2.61348376E-01
 -7.68058131E-03 -4.35031933E-01 -1.75420158E-01  6.23164193E-01  6.77576597E-01
  9.09433306E-01  7.86762612E-01 -6.82839442E-01 -7.77614980E-01 -3.75628115E-01
 -5.39018878E-01 -1.12405537E-01  2.31909008E-01  3.95722198E-02  1.13170577E-01
 -1.65760418E-02  6.27526014E-03 -1.36145652E-01  7.78022271E-01 -7.65103085E-01
  2.64219941E-01  2.19839009E-01 -8.68702734E-01  1.02274338E+00 -3.77070747E-02
 -1.18542854E-01 -5.33928706E-02  3.44678793E-01  1.19346174E-02 -5.17581340E-01
  1.36271077E-02 -8.81835691E-01  1.02785076E-01 -1.40466596E-02 -1.10149008E-01
  1.41826481E+00 -5.05889437E-02  1.99519744E-01  2.96831124E-01 -4.53151099E-02
 -5.94868659E-02  8.66785471E-01 -1.01313327E+00  6.97068034E-01 -1.02114113E+00
 -1.07695803E-02  5.53326605E-01 -2.00277172E-01  2.34227420E-01  1.82024810E-01
 -9.02256227E-01 -1.40244310E-02 -1.22279728E-01 -4.45382445E-01  2.81290714E-01
 -1.46516744E-02  9.13979996E-01 -7.76582732E-01 -7.08858190E-01  1.14509125E+00
 -3.13982688E-02 -1.13441095E+00  2.78291504E-01 -2.41490907E-01 -2.73477643E-01
  2.03220208E+00  5.29257203E-01  4.07062500E-01  5.84727287E-01 -7.48105805E-01
 -4.58336889E-01  7.97010814E-02 -4.94710870E-01 -8.19591116E-01  9.87859754E-02
  3.55625449E-02 -1.28187596E+00 -7.18457897E-01 -7.41433448E-02 -3.74896047E-02
  2.27615230E+00  1.09312989E+00  7.88911859E-02  1.12414132E-01  1.03633993E+00
 -2.15277802E+00 -2.00153912E-01  7.55334741E-02 -2.45365863E-01  5.72480840E-02
Beta MO coefficients                       R   N=         225
  9.95857426E-01  2.80561147E-02  2.01490202E-03  4.11222633E-04  1.14807005E-03
 -1.59969934E-02 -3.94452165E-03 -6.65506999E-04 -1.91204317E-03 -8.59706446E-04
  6.43915871E-03  1.30898686E-04  1.19879449E-03  3.15021346E-04  2.27207181E-03
 -1.87990210E-01  3.79739161E-01  1.93257317E-01  3.31954413E-02  3.85542181E-02
  3.63590259E-01  4.76096935E-02  1.86541030E-02  2.67390007E-02  2.56235229E-01
  8.96999911E-02  1.87605423E-02  9.56257985E-03  8.20701290E-02  3.92054145E-02
  5.21502263E-02 -7.19118258E-02  3.70785608E-01 -9.66464250E-02 -2.13131929E-01
 -3.01437813E-01  1.32516131E-01 -6.32194388E-02 -1.21491921E-01  2.35455885E-01
  2.61738206E-01 -3.37689525E-02 -5.55506553E-02 -2.08297100E-01 -2.75953064E-01
 -6.87714653E-02  1.31736544E-01 -1.98376933E-01  2.83468687E-01 -3.08443137E-01
  3.20387442E-01 -1.18233466E-01  2.17757465E-01 -2.18371646E-01 -6.87078334E-02
 -8.45838393E-02  8.66102485E-02  1.63531063E-01 -1.79506667E-01 -2.64523937E-01
 -9.09066080E-02  1.47870447E-01 -1.75979682E-01 -2.37543466E-01 -1.15217468E-01
  4.82536226E-01 -1.32806908E-01 -2.68696637E-01 -1.07437976E-01 -5.27177658E-02
 -1.56749927E-01 -1.75124855E-01 -4.47136821E-01 -6.00085175E-02 -1.57233804E-01
  1.20372309E-02 -5.72801198E-02 -2.73856050E-02 -4.18645195E-01 -2.21146963E-02
 -1.12617263E-01 -9.14069794E-02 -5.33109478E-01 -7.17036878E-02 -4.55378682E-02
  9.73352152E-02  1.97655028E-01  7.56555249E-01 -3.96090064E-02 -3.11231242E-03
  6.50579194E-02 -9.87267295E-02  1.40736327E-02  1.89934598E-02 -4.34016467E-01
 -6.79968427E-01 -7.81674429E-02 -1.50362213E-02 -7.31537516E-01 -3.22800904E-02
  2.96727195E-01 -3.79411256E-02 -3.32421107E-02  1.82215254E-01  1.10793601E+00
  7.10058034E-02 -7.32840073E-02 -3.36449531E-01  4.57640526E-02  9.36452674E-02
 -1.61529352E+00 -1.18121978E+00 -1.41385052E-03  7.65416112E-02  4.30076205E-02
  2.44077048E+00 -5.20134027E-02 -3.57661300E-02 -7.43107818E-02 -9.38412999E-02
 -4.48812645E-02 -2.24137097E-02 -7.50924456E-01  2.22696236E-01  1.23726550E-01
  8.20072523E-01  1.57499705E+00 -2.61925641E-01 -9.48135943E-02 -4.96667444E-01
 -6.71941588E-01  2.24206900E-02  2.60875577E-02  1.42273218E-01 -2.11740023E-01
 -1.61083356E-02  2.89897841E-01 -1.38343455E-01  3.28887150E-01 -9.98018992E-01
 -2.40436044E-01 -1.68684454E-02 -4.40686591E-01  1.25352259E+00  1.09315296E-01
  1.08537157E-01  2.39266233E-02  2.01410329E-01 -8.75386848E-03 -4.86036453E-01
 -2.84916968E-02  3.08290634E-01 -2.95216966E-01 -9.98581644E-01 -2.67720159E-01
 -1.88876579E-01  2.01532785E-01  1.10189741E+00  2.55844846E-01  1.63432392E-02
  8.69900999E-02  1.44960374E-01 -4.48887304E-01  1.30079677E-01 -1.59026023E-01
  1.94444170E-02 -1.08323212E+00  1.80332551E-01 -4.84196448E-03 -1.86797338E-01
  1.74907559E+00 -1.65131147E-03  1.27122799E-01  4.86381272E-01 -1.53240936E-01
 -1.18430172E-01  3.32410353E-01 -4.61691779E-01  9.43279234E-01 -1.44876441E+00
  4.40630046E-03  5.51229583E-02 -2.21353246E-01  1.53452740E-01  1.28220971E-01
 -9.83902055E-02  3.87509628E-02 -1.06345307E-03 -2.84346565E-01  3.91359084E-01
 -2.27403902E-01  1.21975196E+00 -1.04045060E+00 -2.58029922E-01  5.28228346E-01
 -3.05125175E-02 -1.18793113E+00  2.38424687E-01 -1.87184345E-01 -2.72792155E-01
  2.13710722E+00  5.84984816E-01  3.81832497E-01  5.80933630E-01 -6.93483187E-01
 -5.61810088E-01  1.65894282E-01 -5.70778832E-01 -8.43195256E-01  1.23961068E-01
  3.54133651E-02 -1.22777848E+00 -7.17888818E-01 -6.00789899E-02 -3.67180010E-02
  2.18437692E+00  1.07238808E+00  5.02345442E-02  1.12112303E-01  1.03188689E+00
 -2.11238077E+00 -3.42117812E-01  2.05326308E-01 -2.08040078E-01  2.60946401E-02
Total SCF Density                          R   N=         120
  2.07322741E+00 -1.24163781E-01  3.65530305E-01  1.09347240E-02  6.83241137E-03
  4.72613302E-01  1.09526003E-03 -1.13758294E-02 -1.67666341E-02  1.64002688E-01
  2.03545570E-02 -5.06848660E-02  1.23995574E-02 -1.64180606E-02  3.19748130E-01
 -2.55736438E-01  4.39065257E-01 -2.50270444E-01  1.71364719E-02 -8.16290258E-02
  6.77575557E-01  1.12932406E-02 -3.20920895E-02  1.88008952E-01 -6.25169706E-03
  3.93103949E-02 -1.42748012E-01  8.09520647E-02 -3.98568271E-03 -1.40459079E-03
 -1.01663618E-02  1.20805300E-01 -1.40333275E-02  1.99625421E-02 -4.44391856E-03
  8.96785486E-02  1.09404403E-02 -3.81650752E-02  2.94854571E-02 -1.35671957E-02
  2.13688959E-01 -7.13756180E-02  3.50402507E-02 -1.11927505E-02  1.43872327E-01
 -6.15524032E-02  1.35778019E-01  3.12150675E-01 -1.75565802E-02 -2.92254726E-02
 -4.70365580E-03  1.09887397E-01 -8.82428197E-03 -6.99849374E-03  2.54882815E-01
  1.99088676E-02  1.07789509E-03  2.68082700E-01 -1.80655525E-02 -4.21002348E-02
 -1.45398075E-01  1.02118032E-01 -1.18934437E-02 -1.57573308E-02  1.79226411E-01
  1.60930576E-01 -1.28218676E-02  1.67918977E-02 -4.07856391E-02  9.03773603E-02
 -2.88053414E-02  4.72853407E-02 -1.80268840E-02  6.62720207E-02 -2.20487108E-02
 -2.21410353E-02 -2.56388815E-02  1.65138090E-01 -1.28507357E-02  1.59713684E-02
 -8.51993187E-02  1.43088822E-01 -6.46688537E-02  7.43388087E-02 -3.78301285E-02
  1.04575502E-01 -4.83962926E-02 -5.10965657E-02 -4.88707149E-02  2.54228721E-01
  3.94348400E-01 -2.48697895E-02  3.95111417E-02 -4.31336424E-02 -1.77575256E-02
  2.15580988E-01  6.17974741E-02  3.72499340E-05 -1.32596579E-02  1.40878746E-01
 -2.74425317E-02 -5.97517014E-02 -1.54570659E-02 -3.78767353E-02  1.66847306E-01
 -1.72696241E-05 -6.85531951E-03 -7.32007245E-02 -2.74586485E-02  2.92801879E-01
  1.75533008E-02 -8.50984558E-04 -2.17805677E-02  1.91506420E-01 -6.81499285E-02
 -8.72566855E-02 -2.52568645E-02 -5.52106213E-02  2.15776997E-01  2.89328127E-01
Spin SCF Density                           R   N=         120
  4.18442082E-03 -1.16492056E-02  3.05006965E-02  1.36241293E-02 -3.44606691E-02
  4.42376510E-02  6.18264375E-02 -1.25196534E-01  1.54538689E-01 -1.75915807E-02
  1.23691437E-02 -2.94173262E-02  3.31696587E-02  1.14692410E-01  3.56478629E-02
 -1.16650432E-02  3.60566081E-02 -4.00863737E-02 -2.46894838E-01 -4.04776008E-02
  2.56422618E-02  6.96624562E-03 -1.78189935E-02  2.44432714E-02  8.32360888E-02
  1.91985783E-02 -2.18432742E-02  1.33082254E-02  4.08982109E-02 -8.20003169E-02
  1.15904068E-01 -1.61073256E-02  9.19132410E-02 -1.71270623E-01  6.20222295E-02
 -1.38483103E-02  7.43821209E-03 -1.83038375E-02  2.26132644E-02  8.49786785E-02
  2.51334609E-02 -2.41983243E-02  1.30407009E-02  6.75499302E-02  1.75421416E-02
  2.49088369E-03 -6.81205334E-03  1.12480681E-02  4.98974214E-02  9.00001843E-03
 -5.08356007E-03  6.83151635E-03  4.13089621E-02  6.49956109E-03  3.24787089E-03
  1.87601724E-03 -7.47890930E-03  5.72990700E-03  7.45197535E-02  1.03592822E-02
  1.57463778E-03  4.25730275E-03  5.46999910E-02  6.12704752E-03 -1.60985913E-03
 -6.56715541E-03  9.40576053E-03 -2.51399162E-02  1.13676434E-02  3.35018398E-02
  8.78195143E-03 -4.22089225E-02  9.61810301E-03  2.35825079E-02  6.56964861E-03
 -3.95123165E-03  3.32269655E-03  1.47150785E-01  1.66434505E-02 -4.24340031E-02
  1.71761219E-02  3.90035515E-02  1.17918697E-02 -7.08532930E-02  1.46611905E-02
  2.59763527E-02  9.02008724E-03 -7.36385663E-03  6.14194807E-03  2.21790902E-01
  3.34506072E-01  2.39514813E-03 -5.49989250E-03  8.39095240E-03  3.83002050E-02
  9.72724107E-03 -8.42612694E-03  4.98312879E-03  3.55198539E-02  7.47984226E-03
  3.92202126E-03  4.19275467E-03 -1.51022435E-03 -3.87934354E-03  2.15544476E-03
  2.59651141E-03 -6.75211185E-03  1.13246081E-02  6.65653524E-02  8.96359064E-03
 -7.74850135E-03  6.01912556E-03  5.70727009E-02  6.83729105E-03  5.36217419E-03
  5.38662302E-03  4.55186928E-04 -1.08864339E-04 -5.87687809E-04 -6.00233983E-03
Total MP2 Density                          R   N=         120
  2.07208920E+00 -1.22059728E-01  3.68503529E-01  8.52932671E-03  1.17615369E-02
  4.72231107E-01  2.08499508E-03 -1.49155486E-02 -1.93007287E-02  1.70477988E-01
  1.74777235E-02 -4.22922493E-02  4.14673600E-03 -2.09377303E-02  3.34590483E-01
 -2.51194880E-01  4.22985270E-01 -2.39957127E-01  1.49216482E-02 -7.46802520E-02
  6.70586240E-01  1.05028166E-02 -2.95312249E-02  1.80332413E-01 -7.05880024E-03
  3.47163984E-02 -1.38093001E-01  7.97711137E-02 -3.02583587E-03 -4.63367179E-03
 -1.16771304E-02  1.23929897E-01 -1.69025194E-02  1.78951028E-02 -4.99549828E-03
  9.37840396E-02  9.48777725E-03 -3.16886257E-02  2.52510785E-02 -1.59159968E-02
  2.09303314E-01 -6.90718137E-02  3.21904225E-02 -1.28316707E-02  1.36492259E-01
 -6.18139062E-02  1.35361263E-01  3.05812387E-01 -2.04142469E-02 -3.03839484E-02
 -3.94437397E-03  1.05472191E-01 -1.10928293E-02 -6.03554733E-03  2.54812391E-01
  1.84565523E-02  4.10428466E-03  2.66223395E-01 -1.90358761E-02 -4.21597996E-02
 -1.45870572E-01  1.01105170E-01 -1.25541024E-02 -1.27040410E-02  1.81546261E-01
  1.68518525E-01 -1.59546694E-02  2.20525829E-02 -4.77288584E-02  1.10015267E-01
 -3.41974531E-02  6.13060978E-02 -2.21501135E-02  8.16269680E-02 -2.56609746E-02
 -2.44684531E-02 -2.94984003E-02  1.58427283E-01 -1.82477302E-02  2.46367032E-02
 -9.72113420E-02  1.79272777E-01 -7.33867064E-02  9.89131378E-02 -4.51785777E-02
  1.32961427E-01 -5.41550259E-02 -5.57098545E-02 -5.68630949E-02  2.46955698E-01
  3.91211200E-01 -2.50921509E-02  4.20107172E-02 -4.47977492E-02 -2.11986237E-02
  2.13992264E-01  5.94832931E-02 -1.01029098E-03 -1.59575970E-02  1.34087694E-01
 -2.73669668E-02 -5.91680562E-02 -1.72927343E-02 -4.09957476E-02  1.71935315E-01
 -1.62855306E-04 -2.45995630E-03 -7.48494946E-02 -3.12075469E-02  2.86113787E-01
  1.29163320E-02 -2.47884093E-03 -2.48483227E-02  1.80441063E-01 -6.75758782E-02
 -8.65069035E-02 -2.80015528E-02 -5.98231843E-02  2.16786819E-01  2.89594557E-01
Spin MP2 Density                           R   N=         120
  5.65456047E-03 -1.46513739E-02  3.72368004E-02  1.77362572E-02 -4.31270072E-02
  5.69956993E-02  5.64216729E-02 -1.14305522E-01  1.41321354E-01 -1.05072026E-02
  1.58972513E-02 -3.67523337E-02  4.22541480E-02  1.07678656E-01  4.77393644E-02
 -1.79443487E-02  4.81730671E-02 -5.67046001E-02 -2.27386468E-01 -5.53217152E-02
  5.27434042E-02  8.81083995E-03 -2.13463116E-02  3.05620928E-02  7.47076402E-02
  2.32214285E-02 -3.04268110E-02  1.65694489E-02  3.81387971E-02 -7.42494354E-02
  1.05309594E-01 -1.08973345E-02  8.39568348E-02 -1.63860390E-01  5.74821259E-02
 -1.04723488E-02  9.57196432E-03 -2.23150914E-02  2.79676693E-02  7.63943421E-02
  3.23590212E-02 -3.41545449E-02  1.58077407E-02  6.11143613E-02  2.23083502E-02
  3.74242902E-03 -9.28349614E-03  1.42874062E-02  4.49588409E-02  1.15981614E-02
 -1.00344026E-02  8.81092516E-03  3.78825803E-02  8.17105197E-03  3.42459318E-03
  3.99687666E-03 -1.17546060E-02  1.01039823E-02  7.01130176E-02  1.54141774E-02
 -6.67003407E-03  7.17181570E-03  5.38621900E-02  9.49496734E-03 -1.30668828E-03
 -5.73783197E-03  1.09922847E-02 -2.65576279E-02  1.68831917E-02  3.71874950E-02
  1.30196126E-02 -5.11497683E-02  1.26491862E-02  2.54316682E-02  1.03337493E-02
 -3.73964502E-04  8.79013357E-03  1.27807727E-01  2.00260279E-02 -4.63456956E-02
  2.91433015E-02  4.47040546E-02  2.13941937E-02 -8.96646156E-02  2.12033672E-02
  2.87536784E-02  1.71096460E-02 -3.29801331E-04  1.64161635E-02  1.92308425E-01
  2.90235069E-01  3.44674218E-03 -7.49074886E-03  1.11111847E-02  3.55760938E-02
  1.24039072E-02 -1.32828463E-02  6.16376241E-03  3.25368541E-02  9.36089774E-03
  4.98339089E-03  6.43320095E-03  1.64411252E-03  2.61906453E-03  1.69105298E-03
  4.29180177E-03 -1.00328314E-02  1.61189292E-02  6.15884872E-02  1.22684306E-02
 -1.56520862E-02  8.05632409E-03  5.30290324E-02  9.41545331E-03  7.32555308E-03
  9.10085449E-03  6.39114776E-03  1.16093068E-02 -1.71112890E-03 -8.00430853E-03
Anisotropic Hyperfine tensors              R   N=          24
  1.01562202E-01  6.48750104E-01 -1.62157949E-01  1.93006953E-01  4.96369449E-01
  6.05957471E-02  2.33660544E-02  1.44057657E-03 -7.31182646E-03  1.84821201E-03
  2.51694309E-02 -1.60542279E-02  4.82022571E-03 -6.29440064E-03 -9.59397099E-03
  6.10224747E-04 -4.93286438E-03  4.77374527E-03 -1.22114282E-02  7.20231409E-03
 -3.11200600E-03 -5.02639678E-04 -4.54927343E-03  1.53234342E-02
Isotropic Hyperfine splittings             R   N=           4
  3.07090278E-01  7.22898651E-03  2.06430478E-01  2.72732000E-03
QEq coupling tensors                       R   N=          24
  6.09349209E-01 -1.04086116E-01 -6.87784451E-01  1.14271878E-02 -1.11214267E-01
  7.84352424E-02 -5.36940687E-01  1.10822617E-02  2.52285895E-01  2.37777431E-02
 -8.11345668E-03  2.84654792E-01 -2.17058371E-03  1.10475206E-02  3.28132799E-03
 -2.81017651E-05  6.84150432E-03 -1.11074428E-03  1.64882494E-02 -1.88737701E-03
  1.31073600E-02  1.85790693E-02  5.01337560E-03 -2.95956095E-02
Mulliken Charges                           R   N=           4
 -2.11410898E-01  1.64146756E-01  1.71571274E-02  3.01070146E-02
ONIOM Charges                              I   N=          16
           0           0           0           0           0           0
           0           0           0           0           0           0
           0           0           0           0
ONIOM Multiplicities                       I   N=          16
           2           0           0           0           0           0
           0           0           0           0           0           0
           0           0           0           0
Atom Layers                                I   N=           4
           1           1           1           1
Atom Modifiers                             I   N=           4
           0           0           0           0
Force Field                                I                0
Int Atom Modified Types                    I   N=           4
           0           0           0           0
Link Atoms                                 I   N=           4
           0           0           0           0
Atom Modified MM Charges                   R   N=           4
  0.00000000E+00  0.00000000E+00  0.00000000E+00  0.00000000E+00
Link Distances                             R   N=          16
  0.00000000E+00  0.00000000E+00  0.00000000E+00  0.00000000E+00  0.00000000E+00
  0.00000000E+00  0.00000000E+00  0.00000000E+00  0.00000000E+00  0.00000000E+00
  0.00000000E+00  0.00000000E+00  0.00000000E+00  0.00000000E+00  0.00000000E+00
  0.00000000E+00
Cartesian Gradient                         R   N=          12
  6.80907704E-02 -7.12725987E-02 -1.10481744E-01 -9.26914594E-02  1.73813500E-02
  2.38650439E-02  8.69063612E-03  4.36627652E-02  7.67136909E-03  1.59100529E-02
  1.02284835E-02  7.89453314E-02
Cartesian Force Constants                  R   N=          78
  6.48141107E-01 -4.36719110E-02 -1.40227246E-01 -2.69626223E-02 -4.45733185E-02
 -3.80236716E-02 -5.93550581E-01  2.10625159E-02  2.34314291E-02  6.00625126E-01
  4.27464244E-03  4.58721276E-02  5.40666377E-03 -1.02318924E-02 -2.94514276E-02
  1.66019603E-03  2.65379859E-02  3.72725308E-02 -2.24647520E-02 -5.76470452E-03
 -1.35184054E-02 -1.67209160E-02  4.91842221E-03  2.70200115E-03 -5.17174955E-04
  9.79954744E-03 -2.88111922E-03  1.64524501E-02  3.49082487E-02  1.25506265E-01
  3.33804724E-02 -1.02404649E-02 -2.52489104E-02 -1.46182964E-02 -1.49226029E-02
 -8.68281125E-02  3.36631633E-03  5.86741994E-03 -1.45189397E-02 -4.42568134E-04
  3.07061874E-04 -1.68762393E-05  1.53458224E-04 -1.21010256E-02  1.59977099E-02
 -3.78696101E-02  1.76909728E-02  8.29192038E-04 -6.55736980E-03 -3.84229750E-03
  2.36856752E-02  7.85640900E-04 -9.74518088E-03 -3.07720642E-03  4.36413390E-02
  4.48901979E-03 -3.11511458E-02  5.78618230E-03 -5.90158590E-04  8.82821045E-03
 -6.15498502E-03  2.04633261E-04 -1.34292418E-02  5.92654381E-03 -4.10349447E-03
  3.57521771E-02  2.19361099E-02  1.21679126E-02  1.52700805E-02 -5.24108972E-04
  5.09788782E-05 -2.37372491E-02  2.56598398E-05 -6.66115043E-03 -1.46189398E-03
 -2.14376608E-02 -5.55774109E-03  9.92906255E-03
Dipole Moment                              R   N=           3