CH3 HF Frequency                                                        
Freq      UHF                                                         6-31G               
Number of atoms                            I                4
Info1-9                                    I   N=           9
          12          11           0           0           0         100
           6           1           2
Charge                                     I                0
Multiplicity                               I                2
Number of electrons                        I                9
Number of alpha electrons                  I                5
Number of beta electrons                   I                4
Number of basis functions                  I               15
Number of independent functions            I               15
Number of point charges in /Mol/           I                0
Number of translation vectors              I                0
Atomic numbers                             I   N=           4
           6           1           1           1
Nuclear charges                            R   N=           4
  6.00000000E+00  1.00000000E+00  1.00000000E+00  1.00000000E+00
Current cartesian coordinates              R   N=          12
  0.00000000E+00  0.00000000E+00  0.00000000E+00  1.88972613E+00  0.00000000E+00
  0.00000000E+00  0.00000000E+00  3.77945227E+00  0.00000000E+00  0.00000000E+00
  0.00000000E+00  2.83458920E+00
Force Field                                I                0
Int Atom Types                             I   N=           4
           0           0           0           0
MM charges                                 R   N=           4
  0.00000000E+00  0.00000000E+00  0.00000000E+00  0.00000000E+00
Integer atomic weights                     I   N=           4
          12           1           1           1
Real atomic weights                        R   N=           4
  1.20000000E+01  1.00782504E+00  1.00782504E+00  1.00782504E+00
Atom fragment info                         I   N=           4
           0           0           0           0
Atom residue num                           I   N=           4
           0           0           0           0
Nuclear spins                              I   N=           4
           0           1           1           1
Nuclear ZEff                               R   N=           4
 -3.60000000E+00 -1.00000000E+00 -1.00000000E+00 -1.00000000E+00
Nuclear QMom                               R   N=           4
  0.00000000E+00  0.00000000E+00  0.00000000E+00  0.00000000E+00
Nuclear GFac                               R   N=           4
  0.00000000E+00  2.79284600E+00  2.79284600E+00  2.79284600E+00
MicOpt                                     I   N=           4
          -1          -1          -1          -1
Number of contracted shells                I                9
Number of primitive shells                 I               22
Pure/Cartesian d shells                    I                1
Pure/Cartesian f shells                    I                0
Highest angular momentum                   I                1
Largest degree of contraction              I                6
Shell types                                I   N=           9
           0          -1          -1           0           0           0
           0           0           0
Number of primitives per shell             I   N=           9
           6           3           1           3           1           3
           1           3           1
Shell to atom map                          I   N=           9
           1           1           1           2           2           3
           3           4           4
Primitive exponents                        R   N=          22
  3.04752488E+03  4.57369518E+02  1.03948685E+02  2.92101553E+01  9.28666296E+00
  3.16392696E+00  7.86827235E+00  1.88128854E+00  5.44249258E-01  1.68714478E-01
  1.87311370E+01  2.82539436E+00  6.40121692E-01  1.61277759E-01  1.87311370E+01
  2.82539436E+00  6.40121692E-01  1.61277759E-01  1.87311370E+01  2.82539436E+00
  6.40121692E-01  1.61277759E-01
Contraction coefficients                   R   N=          22
  1.83473713E-03  1.40373228E-02  6.88426223E-02  2.32184443E-01  4.67941348E-01
  3.62311985E-01 -1.19332420E-01 -1.60854152E-01  1.14345644E+00  1.00000000E+00
  3.34946043E-02  2.34726953E-01  8.13757326E-01  1.00000000E+00  3.34946043E-02
  2.34726953E-01  8.13757326E-01  1.00000000E+00  3.34946043E-02  2.34726953E-01
  8.13757326E-01  1.00000000E+00
P(S=P) Contraction coefficients            R   N=          22
  0.00000000E+00  0.00000000E+00  0.00000000E+00  0.00000000E+00  0.00000000E+00
  0.00000000E+00  6.89990666E-02  3.16423961E-01  7.44308291E-01  1.00000000E+00
  0.00000000E+00  0.00000000E+00  0.00000000E+00  0.00000000E+00  0.00000000E+00
  0.00000000E+00  0.00000000E+00  0.00000000E+00  0.00000000E+00  0.00000000E+00
  0.00000000E+00  0.00000000E+00
Coordinates of each shell                  R   N=          27
  0.00000000E+00  0.00000000E+00  0.00000000E+00  0.00000000E+00  0.00000000E+00
  0.00000000E+00  0.00000000E+00  0.00000000E+00  0.00000000E+00  1.88972613E+00
  0.00000000E+00  0.00000000E+00  1.88972613E+00  0.00000000E+00  0.00000000E+00
  0.00000000E+00  3.77945227E+00  0.00000000E+00  0.00000000E+00  3.77945227E+00
  0.00000000E+00  0.00000000E+00  0.00000000E+00  2.83458920E+00  0.00000000E+00
  0.00000000E+00  2.83458920E+00
Constraint Structure                       R   N=          12
  0.00000000E+00  0.00000000E+00  0.00000000E+00  1.88972613E+00  0.00000000E+00
  0.00000000E+00  0.00000000E+00  3.77945227E+00  0.00000000E+00  0.00000000E+00
  0.00000000E+00  2.83458920E+00
Num ILSW                                   I              100
ILSW                                       I   N=         100
           1           1           0           0           2           0
           0           0           0           0           0          -1
           0           0           0           0           0           0
           0           0           0           0           1           0
           1           1           0           0           0           0
           0           0      100000           0          -1           0
           0           0           0           0           0           0
           0           0           0           1           0           0
           0           0           1           0           0           0
           0           0           4          40           0           0
           0           0           0           0           0           0
           0           0           0           0           0           0
           0           0           0           0           0           0
           0           0           0           0           0           0
           0           0           0           0           0           0
           0           0           0           0           0           0
           0           0           0           0
Num RLSW                                   I               40
RLSW                                       R   N=          40
  1.00000000E+00  1.00000000E+00  1.00000000E+00  1.00000000E+00  1.00000000E+00
  0.00000000E+00  0.00000000E+00  1.00000000E+00  0.00000000E+00  0.00000000E+00
  0.00000000E+00  0.00000000E+00  1.00000000E+00  0.00000000E+00  0.00000000E+00
  0.00000000E+00  0.00000000E+00  1.00000000E+00  0.00000000E+00  0.00000000E+00
  0.00000000E+00  0.00000000E+00  1.00000000E+00  0.00000000E+00  0.00000000E+00
  0.00000000E+00  0.00000000E+00  1.00000000E+00  0.00000000E+00  0.00000000E+00
  0.00000000E+00  0.00000000E+00  1.00000000E+00  0.00000000E+00  0.00000000E+00
  0.00000000E+00  0.00000000E+00  0.00000000E+00  1.00000000E+00  1.00000000E+00
MxBond                                     I                1
NBond                                      I   N=           4
           1           1           0           0
IBond                                      I   N=           4
           2           1           0           0
RBond                                      R   N=           4
  1.00000000E+00  1.00000000E+00  0.00000000E+00  0.00000000E+00
Virial Ratio                               R      2.003149545087524E+00
SCF Energy                                 R     -3.931552088725981E+01
Total Energy                               R     -3.931552088725981E+01
S**2                                       R      1.214191222569037E+00
S**2 after annihilation                    R      7.509085788146936E-01
RMS Force                                  R      5.412600965471977E-02
RMS Density                                R      3.554324337563563E-09
External E-field                           R   N=          35
  0.00000000E+00  0.00000000E+00  0.00000000E+00  0.00000000E+00  0.00000000E+00
  0.00000000E+00  0.00000000E+00  0.00000000E+00  0.00000000E+00  0.00000000E+00
  0.00000000E+00  0.00000000E+00  0.00000000E+00  0.00000000E+00  0.00000000E+00
  0.00000000E+00  0.00000000E+00  0.00000000E+00  0.00000000E+00  0.00000000E+00
  0.00000000E+00  0.00000000E+00  0.00000000E+00  0.00000000E+00  0.00000000E+00
  0.00000000E+00  0.00000000E+00  0.00000000E+00  0.00000000E+00  0.00000000E+00
  0.00000000E+00  0.00000000E+00  0.00000000E+00  0.00000000E+00  0.00000000E+00
IOpCl                                      I                1
IROHF                                      I                0
Alpha Orbital Energies                     R   N=          15
 -1.13252391E+01 -9.00885123E-01 -5.10427405E-01 -4.97267733E-01 -4.27852635E-01
  1.13842642E-01  1.78678537E-01  3.03640471E-01  7.13939515E-01  7.62028022E-01
  8.60946218E-01  9.32357626E-01  1.02613407E+00  1.17531187E+00  1.28793229E+00
Beta Orbital Energies                      R   N=          15
 -1.13214494E+01 -8.88583961E-01 -4.94291361E-01 -4.15148877E-01  4.21429085E-02
  1.63532820E-01  1.85255767E-01  3.09177646E-01  7.23827249E-01  8.17330754E-01
  8.47366602E-01  9.76096836E-01  1.14077562E+00  1.17922893E+00  1.29567165E+00
Alpha MO coefficients                      R   N=         225
  9.96463815E-01  2.24095789E-02  1.69556300E-03 -2.94269746E-04  1.11696211E-03
 -1.12316067E-02 -3.04798270E-03 -4.59460369E-04 -1.56574154E-03 -1.69378664E-04
  4.57212297E-03  1.43608943E-04  8.00725589E-04  3.38289626E-04  1.70560506E-03
 -1.89275432E-01  3.86025116E-01  1.66641159E-01 -5.85752270E-02  1.53304148E-02
  3.72423388E-01  4.03735880E-02 -1.54913008E-02  1.82959978E-02  2.51685679E-01
  8.28478207E-02  4.37508654E-02  3.54657981E-02  7.96811034E-02  4.14328397E-02
  4.87459693E-02 -6.91578195E-02  3.95779491E-01  6.86044712E-02 -8.63069182E-02
 -2.80312525E-01  1.63738113E-01  5.00904572E-02 -4.97102678E-02  2.44095031E-01
  2.36739161E-01 -2.08135199E-01 -3.29393161E-01 -1.24036495E-01 -1.71746307E-01
  6.51189365E-02 -1.43461893E-01  2.14656651E-01  2.00310502E-01  1.99591421E-02
 -2.75791959E-01  1.12681676E-01  1.40205470E-01  2.09880192E-02  8.27752841E-02
  9.64532738E-02  3.42340788E-01  5.21997350E-01 -4.89023612E-02 -6.38171010E-02
  5.14559364E-02 -1.31301473E-01  1.24459009E-01  1.51978283E-01  3.88957112E-01
 -1.86959766E-01  1.05718844E-01  1.27036176E-01  2.94215909E-01  9.84397486E-03
 -8.93932477E-03 -8.73504803E-02 -1.71392457E-01  2.32799162E-01  3.33026702E-01
 -6.87802121E-02  7.44974028E-02 -8.52267274E-02  4.14891767E-01 -2.49782598E-02
  4.55111924E-01 -9.57846138E-02  6.97843611E-01 -2.74822398E-02 -1.05983238E-02
 -1.60805136E-01 -1.13631518E-01 -4.56855299E-01 -2.63987632E-02 -1.66549814E-01
  6.78994203E-02 -8.87463028E-02  1.53391193E-02  5.65906285E-02 -3.80016240E-01
 -7.37587207E-01 -7.94381345E-02  6.35161133E-02 -7.87730225E-01 -3.78817476E-02
  3.16896418E-01 -4.16179223E-02 -1.90998351E-02  1.51188336E-01  1.16977334E+00
  7.15060567E-02 -5.13954137E-02 -2.90223854E-01  3.75464314E-02  8.93861999E-02
 -1.68199081E+00 -1.25081398E+00 -1.52685396E-03  9.20453538E-02  2.46112287E-02
  2.51127380E+00 -5.60531573E-02  1.89447591E-02 -7.06281868E-02 -1.15533226E-01
 -4.74424844E-02  1.99494664E-01 -7.81161909E-01 -3.13462228E-01 -9.70517325E-02
  4.32906148E-01  1.37963852E+00  4.08462211E-01  1.49914307E-01 -4.08407582E-01
 -4.01656346E-01  1.11043970E-01 -2.52674538E-01  1.54571667E-01 -2.46616361E-01
 -7.04790559E-03 -5.43882779E-01 -1.19716335E-01  6.25435466E-01  6.96925493E-01
  1.04692232E+00  6.86503403E-01 -6.48171317E-01 -7.46021461E-01 -3.61049670E-01
 -5.18358250E-01 -1.22018554E-01  2.11010101E-01  6.98415563E-02  1.88616063E-02
 -2.03096511E-02 -1.27968050E-02 -1.58545570E-01  7.98238512E-01 -7.82248630E-01
  3.26050991E-01  2.75028197E-01 -8.27754675E-01  9.91942326E-01 -7.39981475E-02
 -1.51080780E-01 -1.13609871E-01  3.71318265E-01  2.86285027E-03 -4.92682182E-01
  1.23591277E-02 -8.46243251E-01  9.63910425E-02  2.20275855E-03 -1.60613642E-01
  1.34385435E+00 -4.99969451E-02  1.89417399E-01  3.15829364E-01 -2.87977677E-02
 -6.45040510E-02  9.73800698E-01 -1.11242053E+00  5.70608300E-01 -8.61975393E-01
 -1.56898583E-02  6.74871570E-01 -2.11378099E-01  2.96335521E-01  2.16826894E-01
 -1.07218078E+00 -7.63691150E-03 -1.93713085E-01 -4.74274145E-01  2.38497664E-01
  4.06951868E-02  7.98912900E-01 -6.35017152E-01 -7.80019184E-01  1.21537478E+00
 -2.57193976E-02 -1.26243641E+00  1.84389743E-01 -2.78518805E-01 -2.66136620E-01
  2.24542264E+00  6.50341336E-01  4.17128583E-01  5.71168631E-01 -5.71693515E-01
 -7.47537445E-01  1.66838082E-02 -4.34607381E-01 -8.85688066E-01  1.58117548E-01
 -4.01965453E-02  1.08311201E+00  7.79644980E-01  4.44443412E-02 -1.45677488E-03
 -1.87638658E+00 -9.84008666E-01 -2.74058827E-02 -2.53978512E-02 -1.13824804E+00
  1.98871994E+00  1.81708937E-01 -1.18705833E-01  1.41363269E-01 -6.60996454E-02
Beta MO coefficients                       R   N=         225
  9.96485757E-01  2.22853289E-02  1.77464119E-03  3.94276137E-04  1.17797384E-03
 -1.11317813E-02 -2.97963622E-03 -3.55282549E-04 -1.52509381E-03 -2.36043159E-04
  4.51530102E-03  1.10055441E-04  7.65872206E-04  3.11878376E-04  1.67291740E-03
 -1.87892710E-01  3.81439882E-01  1.82436293E-01  5.48221465E-02  2.61690676E-02
  3.71270961E-01  4.54077074E-02  2.92345649E-02  2.30957812E-02  2.55829472E-01
  8.70235388E-02  1.36187593E-02  7.29268945E-04  8.04235273E-02  4.19792190E-02
  6.41595792E-02 -9.52708755E-02  4.07029994E-01 -1.60811793E-01 -1.29997990E-01
 -3.60631238E-01  1.66099907E-01 -1.10675802E-01 -7.81764116E-02  2.48494320E-01
  2.66945887E-01 -2.70455724E-02 -4.34051906E-02 -1.63802590E-01 -2.25860594E-01
  5.93798980E-02 -1.34219203E-01  1.43469249E-01 -2.57677228E-01  3.44285572E-01
 -2.54917549E-01  1.06278814E-01 -2.04951652E-01  2.59631370E-01  2.62915361E-02
  2.64893933E-02 -3.93057538E-02 -7.70284908E-02  2.12092921E-01  3.21710469E-01
  8.23364554E-02 -1.12475763E-01  1.33477001E-01  2.20242214E-01  7.27087856E-02
 -4.89298023E-01  1.27365281E-01  3.18480688E-01  8.02890931E-02  3.33725929E-02
  1.59950538E-01  1.42062272E-01  4.96716133E-01  4.28686561E-02  1.65871828E-01
  1.17643545E-02 -6.29977824E-02 -3.98491680E-02 -3.46100769E-01 -5.24592891E-02
 -1.91827026E-01 -1.73892320E-01 -5.79992318E-01 -1.67278483E-01 -5.14583682E-02
  1.99009891E-01  1.40509818E-01  8.12706077E-01 -3.16989550E-02  8.94871350E-02
  6.59858748E-02 -7.88880831E-02  1.24445916E-02  4.43783978E-02 -3.81677768E-01
 -7.34620205E-01 -8.11379686E-02  3.15803866E-02 -7.86617435E-01 -2.98007597E-02
  3.27352568E-01 -5.07585783E-02 -1.26536803E-01  1.48536196E-01  1.16451275E+00
  6.96239550E-02 -4.38764701E-02 -2.93533083E-01  4.88490335E-02  9.05037560E-02
 -1.66437435E+00 -1.23867294E+00  2.39544241E-02  1.12658336E-01  2.30546519E-02
  2.50620428E+00 -4.92876584E-02 -7.54931053E-02 -6.61083951E-02 -1.29085475E-01
 -4.35398401E-02 -3.34183175E-02 -7.43708317E-01  2.55216981E-01  9.46496238E-02
  8.02242410E-01  1.53503213E+00 -3.03994672E-01 -3.84769918E-02 -5.15276151E-01
 -6.01385773E-01  1.65928805E-02  4.20120644E-02  1.41129255E-01 -2.47954873E-01
 -6.14338042E-03  3.30236700E-01 -5.62056936E-02  5.07533951E-01 -9.31044300E-01
 -4.29721440E-01 -1.23867373E-01 -6.36661160E-01  1.10870249E+00  1.35414627E-01
  1.44913945E-01 -3.05464106E-02  3.17367226E-01 -9.37307376E-02 -2.93178825E-01
 -3.42138740E-02  3.79863235E-01 -3.26608049E-01 -9.42228814E-01 -4.57970028E-01
 -2.43784148E-01  2.02590890E-01  9.51925754E-01  4.58740633E-01  1.01619603E-02
  1.15413114E-01  1.59275281E-01 -3.80620152E-01  1.26088535E-01 -2.28903834E-01
  1.95178283E-02 -1.15148861E+00  1.88445733E-01  1.75095292E-02 -2.91592204E-01
  1.85531141E+00  3.55902607E-02  1.11050156E-01  5.91486651E-01 -1.61905724E-01
 -1.78219862E-01  3.10583330E-01 -4.33013066E-01  8.98113371E-01 -1.43894418E+00
  1.39568128E-03 -9.81959126E-02 -1.85342696E-01  1.34584617E-01  9.63233577E-02
  1.64497711E-01  1.04830931E-01  3.31166024E-02 -1.95733679E-01  2.86205409E-01
 -2.69409484E-01  1.25028581E+00 -1.06511874E+00 -3.47363576E-01  5.04716419E-01
 -2.87954754E-02 -1.26055006E+00  1.67463001E-01 -2.09450366E-01 -2.91838412E-01
  2.27760340E+00  6.86079208E-01  3.71359745E-01  6.02757656E-01 -5.85027935E-01
 -7.72174943E-01 -4.48936008E-02 -3.83580264E-01 -8.83201063E-01  1.34511164E-01
 -3.88273067E-02  1.05144642E+00  7.72725799E-01  3.69456901E-02  6.14746918E-03
 -1.83119501E+00 -9.75944850E-01 -1.06119648E-02 -3.89922198E-02 -1.11687347E+00
  1.96163925E+00  3.34901657E-01 -2.40385338E-01  1.20914716E-01 -3.60043636E-02
Total SCF Density                          R   N=         120
  2.07395964E+00 -1.33749449E-01  3.65206128E-01  1.19475302E-02  1.45131643E-03
  4.65524071E-01 -5.24250144E-04 -5.22848325E-03 -1.31179847E-02  1.66623023E-01
  2.36779805E-02 -6.58387990E-02  2.23492326E-02 -1.00825249E-02  2.95489396E-01
 -2.42052757E-01  4.36954578E-01 -2.47016350E-01  1.93296633E-02 -7.95145277E-02
  6.61419489E-01  1.55469962E-02 -3.86886552E-02  2.00006566E-01 -4.10081791E-03
  4.60353090E-02 -1.51770830E-01  9.32782239E-02 -4.53512520E-03  2.94728554E-03
 -5.97047379E-03  1.23947248E-01 -7.76079131E-03  2.07934840E-02 -2.03034264E-03
  9.36541081E-02  1.36013651E-02 -4.98003978E-02  3.41347209E-02 -8.62687259E-03
  2.19578059E-01 -6.94289768E-02  4.17346031E-02 -6.33792453E-03  1.63867544E-01
 -6.08105036E-02  1.37479693E-01  3.09130980E-01 -1.26301758E-02 -2.82852504E-02
 -6.88850796E-04  1.16184031E-01 -4.22759509E-03 -9.58672548E-03  2.57766191E-01
  1.30843490E-02  7.35513177E-03  2.55441532E-01 -1.56319525E-02 -4.40087874E-02
 -1.31250169E-01  1.03110647E-01 -9.47049320E-03 -2.28538744E-02  1.75826741E-01
  1.51868520E-01 -7.00384870E-03  6.69214969E-03 -2.66333067E-02  5.36814123E-02
 -1.81683892E-02  2.13795540E-02 -1.10243483E-02  3.72451381E-02 -1.51444614E-02
 -1.65858716E-02 -1.89229282E-02  1.72523629E-01 -3.53139242E-03 -1.12470738E-03
 -6.23208005E-02  8.07069599E-02 -4.81294116E-02  2.91645623E-02 -2.71699122E-02
  5.49766767E-02 -3.90389221E-02 -4.25805930E-02 -3.67182027E-02  2.67993880E-01
  4.19433444E-01 -2.47120933E-02  3.36156985E-02 -3.89066714E-02 -1.14931504E-02
  1.97919486E-01  6.92646630E-02  9.91645534E-04 -7.71880283E-03  1.44818499E-01
 -2.65315242E-02 -6.06672701E-02 -1.05848995E-02 -3.09123512E-02  1.56603872E-01
 -3.14262275E-03 -1.22735919E-02 -7.14319242E-02 -2.06547779E-02  2.84941575E-01
  3.39014757E-02  1.39136641E-04 -1.55976911E-02  2.08085391E-01 -7.04265145E-02
 -9.44609674E-02 -1.93424742E-02 -4.72932036E-02  2.13859647E-01  3.02471477E-01
Spin SCF Density                           R   N=         120
  2.09972480E-03 -6.65900527E-03  1.90374222E-02  7.69949475E-03 -2.17358722E-02
  2.64380866E-02  7.05282610E-02 -1.46880587E-01  1.71725481E-01 -2.39041966E-02
  6.95821461E-03 -1.82057289E-02  1.98340533E-02  1.22665941E-01  2.32529153E-02
 -3.79936703E-03  1.70706588E-02 -1.57223154E-02 -2.68729707E-01 -1.71537356E-02
 -4.58828976E-03  4.61343024E-03 -1.30181895E-02  1.77383421E-02  9.91157438E-02
  1.36705575E-02 -1.15679940E-02  1.13680169E-02  4.57007081E-02 -9.54445928E-02
  1.32269157E-01 -2.04765700E-02  1.03058493E-01 -1.85240164E-01  7.56431087E-02
 -1.65640892E-02  4.51765427E-03 -1.25525669E-02  1.48551696E-02  9.75008151E-02
  1.92726396E-02 -1.06290440E-02  1.04116227E-02  8.14298840E-02  1.57560629E-02
  7.87949688E-04 -3.27071247E-03  5.95331950E-03  5.27908632E-02  4.82959933E-03
  1.97576313E-03  4.81113145E-03  4.65957142E-02  3.79596493E-03  1.98729900E-03
 -6.12486627E-04 -1.25950768E-03 -1.23778980E-03  7.43303727E-02  2.59095052E-03
  1.02750059E-02  9.24579333E-04  5.53915144E-02  1.12293294E-03 -2.75946636E-03
 -7.24203679E-03  6.03295353E-03 -1.94067160E-02  1.69224309E-03  2.32332170E-02
  1.15163881E-03 -2.82769049E-02  5.07878617E-03  1.43508001E-02  4.08164321E-04
 -8.04582009E-03 -4.77244757E-03  1.67599853E-01  9.93390011E-03 -3.06630936E-02
 -5.15274049E-03  2.69692868E-02 -6.41496356E-03 -4.19382628E-02  3.56061252E-03
  1.37525398E-02 -5.85877098E-03 -1.73310871E-02 -9.59749594E-03  2.59570686E-01
  4.03796409E-01  7.19229385E-04 -2.02903033E-03  4.23539136E-03  3.63088784E-02
  5.08045421E-03 -4.58480626E-04  3.02302966E-03  3.82587483E-02  5.36161338E-03
  2.57473503E-03  1.54886311E-03 -4.96283079E-03 -1.25754998E-02  3.83989765E-05
  7.44506077E-05 -1.04967937E-03  4.79802518E-03  6.78939507E-02  2.49712803E-03
  3.88190786E-03  2.98557862E-03  6.38245889E-02  3.78520659E-03  3.42885683E-03
  1.75884723E-03 -7.41316531E-03 -1.74022948E-02 -3.35175648E-03 -1.00798973E-02
Anisotropic Hyperfine tensors              R   N=          24
  6.39920109E-02  7.87146690E-01 -1.15018991E-01  9.13637306E-02  5.72460986E-01
  5.10269805E-02  4.23076551E-03  3.29967458E-03  6.15921339E-03  4.26205678E-04
  2.96027462E-02 -1.03899789E-02  1.09001473E-02 -7.71887684E-03 -2.17203645E-02
  2.92545195E-04 -6.03179280E-03  1.08202172E-02 -9.68790125E-03  8.44972489E-03
  3.48056759E-03 -4.84201790E-04 -5.12261771E-03  6.20733365E-03
Isotropic Hyperfine splittings             R   N=           4
  1.19063607E-01  4.23505550E-03  2.72774961E-01  1.19523929E-04
QEq coupling tensors                       R   N=          24
  6.65559306E-01 -6.86354435E-02 -6.76585150E-01  8.83542216E-02 -5.69623122E-02
  1.10258448E-02 -5.47048956E-01  6.15216038E-03  2.52984883E-01  2.47519666E-02
 -4.68761401E-03  2.94064073E-01  3.56829431E-03  9.52707690E-03 -8.63849036E-03
  1.14853087E-04  4.96489560E-03  5.07019605E-03  2.26310032E-02 -1.17363889E-03
  1.67044363E-02  1.78154716E-02  3.05550653E-03 -3.93354395E-02
Mulliken Charges                           R   N=           4
 -1.95496091E-01  1.59691963E-01  1.93776325E-02  1.64264951E-02
ONIOM Charges                              I   N=          16
           0           0           0           0           0           0
           0           0           0           0           0           0
           0           0           0           0
ONIOM Multiplicities                       I   N=          16
           2           0           0           0           0           0
           0           0           0           0           0           0
           0           0           0           0
Atom Layers                                I   N=           4
           1           1           1           1
Atom Modifiers                             I   N=           4
           0           0           0           0
Force Field                                I                0
Int Atom Modified Types                    I   N=           4
           0           0           0           0
Link Atoms                                 I   N=           4
           0           0           0           0
Atom Modified MM Charges                   R   N=           4
  0.00000000E+00  0.00000000E+00  0.00000000E+00  0.00000000E+00
Link Distances                             R   N=          16
  0.00000000E+00  0.00000000E+00  0.00000000E+00  0.00000000E+00  0.00000000E+00
  0.00000000E+00  0.00000000E+00  0.00000000E+00  0.00000000E+00  0.00000000E+00
  0.00000000E+00  0.00000000E+00  0.00000000E+00  0.00000000E+00  0.00000000E+00
  0.00000000E+00
Cartesian Gradient                         R   N=          12
  6.18210029E-02 -3.39368834E-02 -1.18171374E-01 -8.43270147E-02  1.15939028E-02
  2.50635925E-02  5.79695057E-03  1.53434985E-02  5.24961269E-03  1.67090612E-02
  6.99948203E-03  8.78581688E-02
Cartesian Force Constants                  R   N=          78
  6.60624040E-01 -2.05708737E-02 -6.68366485E-02 -1.31508152E-02 -2.08525218E-02
 -2.44558510E-02 -6.05830567E-01  9.61023181E-03  1.82736149E-02  6.10763847E-01
  2.37959684E-03  4.09950942E-02  4.58116173E-03 -6.24069613E-03 -3.10310465E-02
 -7.97232897E-03  1.02302965E-02  2.15942371E-02 -2.05839000E-02 -4.40300076E-03
  1.51263493E-03 -7.78950686E-03  4.14041427E-03  2.29056977E-03 -5.27387287E-05
  6.79643855E-03 -2.20149510E-03  7.45793404E-03  1.49127863E-02  6.17325600E-02
  1.26751676E-02 -2.90479035E-03 -1.86299689E-02 -1.73878180E-03 -1.08487910E-02
 -3.35254665E-02  2.45886554E-03  4.34856597E-03 -6.28220125E-03 -3.48565421E-04
 -1.32109203E-04  1.24927150E-06 -6.60547009E-05 -8.57184444E-03  7.32625373E-03
 -4.70039662E-02  6.82022767E-03 -7.41336948E-03 -4.88054157E-03 -2.93533926E-03
  3.07577241E-02  3.84311543E-04 -1.15920497E-03 -2.04424542E-03  5.15001962E-02
  3.27849060E-03 -3.58910057E-02  3.59619242E-03 -4.64745331E-04  8.66592125E-03
 -4.08851399E-03 -8.80618315E-05 -9.57712461E-03  4.35538767E-03 -2.72568343E-03
  3.68022090E-02  1.86642787E-02  6.27365926E-03  9.14381515E-03  2.65885050E-03
 -4.60517676E-05 -2.31081213E-02 -2.30199676E-05 -2.36454138E-03 -1.04530175E-03
 -2.13001092E-02 -3.86306610E-03  1.50096079E-02
Dipole Moment                              R   N=           3
  5.35691454E-01  1.27331562E-03  1.07017595E-01
Dipole Derivatives                         R   N=          36
  1.33428367E-02 -1.33291298E-01  2.01935511E-02 -1.16528275E-01 -3.60869671E-01
 -3.67562311E-02 -1.46301523E-01 -2.16809842E-01  3.89364094E-01 -1.20518641E-01
  7.54209747E-02  1.10121155E-01  6.44912359E-02  2.68794474E-01  1.35153984E-02
  5.52587014E-02  9.78173434E-02  7.78665504E-02  3.25827614E-02 -7.34282725E-03
  6.75879684E-03  4.77135365E-02  2.49325382E-02  7.38090431E-03  3.24247558E-03
  2.20411476E-02  1.22320136E-02  7.45930427E-02  6.52131506E-02 -1.37073503E-01
  4.32350276E-03  6.71426580E-02  1.58599284E-02  8.78003460E-02  9.69513510E-02
 -4.79462658E-01
Polarizability                             R   N=           6
  9.59289298E+00  5.64189183E-01  1.66775178E+01 -4.10301405E-02 -1.12839760E+00
  2.18760386E+01
Polarizability Derivatives                 R   N=          72
 -8.64856469E+00 -9.44460892E-01  3.83232803E+00 -3.44243923E+00 -3.90552627E-01
 -2.25094150E+00 -5.04803956E-01 -1.72303094E+00  1.68026524E+01 -1.35681170E-01
 -7.82399066E+00 -7.57213568E-01  3.03811307E-01  1.50394794E-01  3.57790976E+00
 -1.52788121E+00 -1.40872737E+00 -1.83066346E+01  8.45351310E+00 -1.49203879E+00
 -1.24424256E+00 -2.12278530E+00  1.80759904E-01  9.22912104E-01 -6.01511790E-02
  2.24257815E+00 -3.22980619E+00  3.22469681E-02  5.63936305E-01  1.14518257E-02
 -6.67141938E-02 -2.41809902E-01 -1.01200986E+00  2.27153077E+00  1.74043498E-01
  1.94001789E+00  2.68479977E-01  2.99578907E+00 -1.91343188E+00 -2.82435816E-01
  2.92814489E-01  5.73012605E-03  4.50390622E-01 -6.54664509E-01 -1.03632333E+01
  2.59932743E-01  1.43071065E+00  4.05197777E-01  8.59256048E-02  1.12190037E-01
 -1.81008674E+00  3.19012054E-02  2.99655103E+00 -3.41715881E-01 -7.34283860E-02
 -5.59289391E-01 -6.74653587E-01  5.84766035E+00 -8.30217663E-02  1.32229927E+00
  1.14564513E-01  1.35117300E-01 -3.20961295E+00 -1.56498541E-01  5.82934371E+00
  3.40563965E-01 -3.23022718E-01 -2.07749283E-02 -7.55813147E-01 -7.75550767E-01
 -1.76186716E+00  1.67083326E+01
HyperPolarizability                        R   N=          10
  2.57997237E+01 -1.37908324E+01 -7.10558728E+00  6.09985022E+01 -1.30102601E+01
 -1.48446123E-01 -3.00369202E+01 -1.12835204E+01 -2.01932498E+01  7.47012173E+01
