H2O2 B3LYP Frequency                                                    
Freq      RB3LYP                                                      6-31G               
Number of atoms                            I                4
Info1-9                                    I   N=           9
          11          11           0           0           0         100
           6          18        -502
Charge                                     I                0
Multiplicity                               I                1
Number of electrons                        I               18
Number of alpha electrons                  I                9
Number of beta electrons                   I                9
Number of basis functions                  I               22
Number of independent functions            I               22
Number of point charges in /Mol/           I                0
Number of translation vectors              I                0
Atomic numbers                             I   N=           4
           8           8           1           1
Nuclear charges                            R   N=           4
  8.00000000E+00  8.00000000E+00  1.00000000E+00  1.00000000E+00
Current cartesian coordinates              R   N=          12
  0.00000000E+00  0.00000000E+00  0.00000000E+00  0.00000000E+00  0.00000000E+00
  2.83458920E+00  1.88972613E+00  0.00000000E+00  0.00000000E+00  0.00000000E+00
  1.32280829E+00  1.88972613E+00
Force Field                                I                0
Int Atom Types                             I   N=           4
           0           0           0           0
MM charges                                 R   N=           4
  0.00000000E+00  0.00000000E+00  0.00000000E+00  0.00000000E+00
Integer atomic weights                     I   N=           4
          16          16           1           1
Real atomic weights                        R   N=           4
  1.59949146E+01  1.59949146E+01  1.00782504E+00  1.00782504E+00
Atom fragment info                         I   N=           4
           0           0           0           0
Atom residue num                           I   N=           4
           0           0           0           0
Nuclear spins                              I   N=           4
           0           0           1           1
Nuclear ZEff                               R   N=           4
 -5.60000000E+00 -5.60000000E+00 -1.00000000E+00 -1.00000000E+00
Nuclear QMom                               R   N=           4
  0.00000000E+00  0.00000000E+00  0.00000000E+00  0.00000000E+00
Nuclear GFac                               R   N=           4
  0.00000000E+00  0.00000000E+00  2.79284600E+00  2.79284600E+00
MicOpt                                     I   N=           4
          -1          -1          -1          -1
Number of contracted shells                I               10
Number of primitive shells                 I               28
Pure/Cartesian d shells                    I                1
Pure/Cartesian f shells                    I                0
Highest angular momentum                   I                1
Largest degree of contraction              I                6
Shell types                                I   N=          10
           0          -1          -1           0          -1          -1
           0           0           0           0
Number of primitives per shell             I   N=          10
           6           3           1           6           3           1
           3           1           3           1
Shell to atom map                          I   N=          10
           1           1           1           2           2           2
           3           3           4           4
Primitive exponents                        R   N=          28
  5.48467166E+03  8.25234946E+02  1.88046958E+02  5.29645000E+01  1.68975704E+01
  5.79963534E+00  1.55396162E+01  3.59993359E+00  1.01376175E+00  2.70005823E-01
  5.48467166E+03  8.25234946E+02  1.88046958E+02  5.29645000E+01  1.68975704E+01
  5.79963534E+00  1.55396162E+01  3.59993359E+00  1.01376175E+00  2.70005823E-01
  1.87311370E+01  2.82539436E+00  6.40121692E-01  1.61277759E-01  1.87311370E+01
  2.82539436E+00  6.40121692E-01  1.61277759E-01
Contraction coefficients                   R   N=          28
  1.83107443E-03  1.39501722E-02  6.84450781E-02  2.32714336E-01  4.70192898E-01
  3.58520853E-01 -1.10777550E-01 -1.48026263E-01  1.13076702E+00  1.00000000E+00
  1.83107443E-03  1.39501722E-02  6.84450781E-02  2.32714336E-01  4.70192898E-01
  3.58520853E-01 -1.10777550E-01 -1.48026263E-01  1.13076702E+00  1.00000000E+00
  3.34946043E-02  2.34726953E-01  8.13757326E-01  1.00000000E+00  3.34946043E-02
  2.34726953E-01  8.13757326E-01  1.00000000E+00
P(S=P) Contraction coefficients            R   N=          28
  0.00000000E+00  0.00000000E+00  0.00000000E+00  0.00000000E+00  0.00000000E+00
  0.00000000E+00  7.08742682E-02  3.39752839E-01  7.27158577E-01  1.00000000E+00
  0.00000000E+00  0.00000000E+00  0.00000000E+00  0.00000000E+00  0.00000000E+00
  0.00000000E+00  7.08742682E-02  3.39752839E-01  7.27158577E-01  1.00000000E+00
  0.00000000E+00  0.00000000E+00  0.00000000E+00  0.00000000E+00  0.00000000E+00
  0.00000000E+00  0.00000000E+00  0.00000000E+00
Coordinates of each shell                  R   N=          30
  0.00000000E+00  0.00000000E+00  0.00000000E+00  0.00000000E+00  0.00000000E+00
  0.00000000E+00  0.00000000E+00  0.00000000E+00  0.00000000E+00  0.00000000E+00
  0.00000000E+00  2.83458920E+00  0.00000000E+00  0.00000000E+00  2.83458920E+00
  0.00000000E+00  0.00000000E+00  2.83458920E+00  1.88972613E+00  0.00000000E+00
  0.00000000E+00  1.88972613E+00  0.00000000E+00  0.00000000E+00  0.00000000E+00
  1.32280829E+00  1.88972613E+00  0.00000000E+00  1.32280829E+00  1.88972613E+00
Constraint Structure                       R   N=          12
  0.00000000E+00  0.00000000E+00  0.00000000E+00  0.00000000E+00  0.00000000E+00
  2.83458920E+00  1.88972613E+00  0.00000000E+00  0.00000000E+00  0.00000000E+00
  1.32280829E+00  1.88972613E+00
Num ILSW                                   I              100
ILSW                                       I   N=         100
           0           1           0           0           2           0
           0           0           0           0         402 67108864000
       99590           0           0           0           2           0
           0           0           0           0           1           0
           1           1           0           0           0           0
           0           0      100000           0          -1           0
           0           0           0           0           0           0
           0           0           0           1           0           0
           0           0           1           0           0           0
           0           0           4          50           0           0
           0           0           5           0           0           0
          -1          -1          -1           0           0           0
           0           0           0           0           0           0
           0           0           0           0           0           0
           0           0           0           0           0           0
           0           0           0           0           0           0
           0           0           0           0
Num RLSW                                   I               50
RLSW                                       R   N=          50
  8.00000000E-01  7.20000000E-01  1.00000000E+00  8.10000000E-01  2.00000000E-01
  0.00000000E+00  0.00000000E+00  1.00000000E+00  0.00000000E+00  0.00000000E+00
  0.00000000E+00  0.00000000E+00  1.00000000E+00  0.00000000E+00  0.00000000E+00
  0.00000000E+00  0.00000000E+00  1.00000000E+00  0.00000000E+00  0.00000000E+00
  0.00000000E+00  0.00000000E+00  1.00000000E+00  0.00000000E+00  0.00000000E+00
  0.00000000E+00  0.00000000E+00  1.00000000E+00  0.00000000E+00  0.00000000E+00
  0.00000000E+00  0.00000000E+00  1.00000000E+00  0.00000000E+00  0.00000000E+00
  0.00000000E+00  0.00000000E+00  0.00000000E+00  1.00000000E+00  1.00000000E+00
  8.00000000E-01  7.20000000E-01  1.00000000E+00  8.10000000E-01  2.31488553E+12
  2.31488553E+12  2.31488553E+12  2.31488553E+12  2.00000000E-01  2.31488553E+12
MxBond                                     I                2
NBond                                      I   N=           4
           2           2           1           1
IBond                                      I   N=           8
           2           3           1           4           1           0
           2           0
RBond                                      R   N=           8
  1.00000000E+00  1.00000000E+00  1.00000000E+00  1.00000000E+00  1.00000000E+00
  0.00000000E+00  1.00000000E+00  0.00000000E+00
Virial Ratio                               R      2.000428811299251E+00
SCF Energy                                 R     -1.513775436089372E+02
Total Energy                               R     -1.513775436089372E+02
RMS Force                                  R      1.049867579282217E-01
RMS Density                                R      6.741874355415765E-09
External E-field                           R   N=          35
  0.00000000E+00  0.00000000E+00  0.00000000E+00  0.00000000E+00  0.00000000E+00
  0.00000000E+00  0.00000000E+00  0.00000000E+00  0.00000000E+00  0.00000000E+00
  0.00000000E+00  0.00000000E+00  0.00000000E+00  0.00000000E+00  0.00000000E+00
  0.00000000E+00  0.00000000E+00  0.00000000E+00  0.00000000E+00  0.00000000E+00
  0.00000000E+00  0.00000000E+00  0.00000000E+00  0.00000000E+00  0.00000000E+00
  0.00000000E+00  0.00000000E+00  0.00000000E+00  0.00000000E+00  0.00000000E+00
  0.00000000E+00  0.00000000E+00  0.00000000E+00  0.00000000E+00  0.00000000E+00
IOpCl                                      I                0
IROHF                                      I                0
Alpha Orbital Energies                     R   N=          22
 -1.92373441E+01 -1.91910050E+01 -1.22098014E+00 -9.20607437E-01 -5.42600064E-01
 -5.10614950E-01 -4.46284791E-01 -3.19545638E-01 -3.08853944E-01 -4.91110719E-02
  3.28900513E-02  1.64253069E-01  7.48138392E-01  8.26440685E-01  8.38351704E-01
  8.71386677E-01  9.45486507E-01  9.61409853E-01  1.00881164E+00  1.05680495E+00
  1.43922296E+00  1.58305090E+00
Alpha MO coefficients                      R   N=         484
  9.95080230E-01  2.84546461E-02  1.65249307E-03  3.60251758E-04  1.63352134E-03
 -1.43556145E-02 -2.44748299E-03 -6.92135793E-04 -3.20559653E-03  7.21206870E-04
  2.23660392E-04  6.57919255E-05  1.22025439E-04 -2.29449059E-04  9.24357509E-04
 -2.96885808E-05 -1.14136915E-03 -1.68754951E-03  7.72717056E-04  2.85990445E-03
  6.96106209E-04  2.54448958E-03 -7.65195306E-04  1.29911925E-04  1.42894216E-05
  2.17895267E-04  2.56597359E-04  1.24826015E-03 -2.96268392E-05 -9.29315711E-04
  1.68129774E-03  9.95043428E-01  2.82808301E-02  1.18471029E-04  1.43318513E-03
 -2.03799705E-03 -1.42283689E-02 -6.39829077E-05 -2.10443868E-03  3.53045163E-03
 -9.30360570E-05  1.83086984E-04 -1.95477000E-04  5.24713521E-03 -1.41979744E-01
  3.06294313E-01  6.25370671E-02  2.78518192E-02  1.20463728E-01  3.05366112E-01
  3.70383954E-02  2.26168065E-02  5.77374117E-02 -1.40336253E-01  3.05592733E-01
  8.72051095E-03  7.97194199E-02 -1.42303517E-01  2.56185593E-01  9.39840990E-03
  2.76514281E-02 -3.84201867E-02  7.78712849E-02 -1.27783883E-02  1.81941230E-01
 -4.61108928E-02 -1.63195757E-01  3.68150744E-01  1.36898838E-01 -1.65206385E-03
 -5.58001259E-02  4.28774529E-01  6.69814217E-02  1.07403623E-02  9.74954769E-03
  1.51661343E-01 -3.47457811E-01  4.16610872E-03 -1.13929333E-01  2.85833657E-02
 -3.69887878E-01 -1.61399201E-03 -4.10417646E-02  2.89162274E-02  1.49327480E-01
  6.66200325E-03 -1.39604842E-01 -1.36703678E-03  4.02227774E-02 -8.85943808E-02
  3.58064903E-01 -1.80196792E-01 -1.37817556E-01 -1.70283985E-01  1.82143668E-01
 -1.17526244E-01 -7.40130495E-02 -8.61083892E-02  1.91867718E-01  1.32186957E-01
 -1.78400373E-01  2.06508989E-01  3.31092628E-01  8.90012009E-02 -7.20348124E-02
  9.00345367E-02  2.10804618E-01  1.36852731E-01 -1.75458225E-01 -6.67531155E-02
  5.56511140E-02 -1.22742547E-01  2.98635258E-01  2.62122141E-01 -3.60592557E-02
 -2.16167057E-01  1.73512077E-01  1.62601551E-01 -2.38546420E-02  4.85862730E-02
 -9.82187141E-02  1.14867504E-01  3.56441042E-01 -1.81548610E-02 -2.34258673E-01
  7.89655137E-02  1.75156346E-01  1.62254326E-02  1.51039918E-01  8.06535932E-02
  2.16717765E-01  1.26756016E-01  5.00510675E-02 -1.30157370E-01  1.46980039E-01
 -1.28551131E-01  4.33224222E-01 -1.30032494E-01  1.02159392E-01 -6.52985833E-02
  3.00707101E-01  4.37211898E-02 -1.09767648E-01  1.13160259E-01 -1.56205338E-01
 -3.57141031E-01 -1.20964537E-01  8.89485964E-02 -7.37900447E-02 -2.06604258E-01
  3.33157432E-02  1.31714673E-02 -1.22259906E-02 -1.32333629E-01 -5.24061155E-03
 -4.62328761E-03 -6.08521485E-02  5.45376540E-01  8.05501924E-02  8.13510262E-02
 -2.59386140E-02  4.01477254E-01  9.53350700E-02 -2.01057517E-02  4.45462079E-02
  1.97222817E-01 -3.75213864E-01  8.27566071E-02  4.75111196E-02  1.45826759E-01
 -2.46129261E-01  6.74630420E-02 -5.00187425E-02 -2.42352173E-02 -1.07174771E-01
 -7.74059696E-03 -2.69168191E-02  6.77702509E-02 -2.23087570E-01 -1.63479417E-01
 -9.50518591E-02  8.42189781E-02 -1.27038377E-01 -1.23302432E-01 -8.50434664E-02
  8.88773396E-03 -2.72696996E-02  6.06221290E-01  1.18795333E-01 -8.97997339E-03
 -5.09750984E-03  4.41830177E-01  7.53912144E-02 -2.52307566E-02 -1.21697875E-01
 -5.75101789E-02  2.62721447E-02  2.47355591E-02 -5.64688744E-02  1.54646147E-01
  1.44659864E-02 -5.24595872E-02  5.10407723E-01  3.76846305E-01  4.66214763E-02
 -6.40882769E-02  4.99576389E-01  4.13887407E-02 -1.20707842E-01  1.70750968E-02
  1.29831902E-01  5.33107491E-01 -2.91701727E-01  3.05918146E-02  1.14874808E-01
  5.12581229E-01 -3.80327980E-04 -2.37327175E-01 -7.78089456E-02  1.26129828E-01
  5.92697906E-02 -1.07881912E-01 -3.48459828E-01 -4.23711899E-02  1.07264458E-01
 -7.67197329E-01 -5.05736477E-01 -5.79818955E-02  9.43598482E-02  3.36174896E-02
 -7.89750161E-02 -3.08061054E-02 -4.31763193E-02  6.83399781E-02 -3.63467960E-01
 -3.53449503E-02 -9.20964095E-02  1.14099257E-01  1.85753966E-01  1.28150390E+00
  5.68779193E-03  4.44095373E-01  1.38911213E-02 -3.72961878E-02  1.62978130E-01
 -1.55898976E-01 -8.56688486E-02 -1.88810596E-01  2.65118258E-01 -2.63954327E-01
 -1.94780993E-01  5.39337859E-02 -7.96542202E-02  1.30080321E-02 -2.63081872E-01
 -1.72662411E-02 -1.01198967E+00  2.75580355E-02 -5.12636246E-01  1.19699706E-01
 -9.97005485E-02 -7.27318487E-01  1.21858855E-01  2.09228425E+00  1.41742565E-02
 -1.24907957E-01 -4.42562826E-01 -6.14975753E-02 -3.63253025E-01  3.48938165E-01
  8.87993405E-02  5.33999805E-02  5.27116778E-01 -1.04571930E-02  9.31160128E-02
  8.02993409E-02 -9.31351312E-02 -1.38471900E-01 -2.01758881E-01 -2.61420506E-03
  1.87506781E-01  1.89570691E-01  1.08699987E+00 -9.91088292E-01 -2.35149490E-01
  1.84808607E-01 -2.88933872E-02  1.07873265E-01 -3.36603495E-01 -4.85769283E-01
 -2.56981091E-01  3.59711706E-01  4.53269772E-01  5.32768184E-01  5.28026744E-01
  3.05927642E-02 -1.40478023E-02 -3.78294251E-01 -9.87880804E-02  9.93228826E-02
 -3.97627188E-01  3.24993059E-01 -3.99679748E-01  4.91590122E-01 -2.63481414E-01
  8.85665996E-02  8.44793680E-01 -5.53755402E-01 -3.17638565E-02  1.69807508E-01
  9.27464564E-03  5.30813527E-01 -3.75208090E-01  1.70046591E-01  2.81500856E-02
 -6.01150742E-01  7.80708633E-01  5.22823799E-02 -3.10883914E-01 -2.44913480E-01
  2.88406545E-01 -4.54075954E-01 -3.02958867E-01  2.48652470E-01 -2.63886657E-01
  8.99026529E-01 -2.34715917E-01  1.81367896E-01 -1.89814167E-02  3.03441195E-01
 -3.07749168E-02  3.40070698E-01 -1.61464745E-01  4.63982090E-02  7.98487213E-02
 -4.50731146E-01  1.95423060E-01 -8.71469854E-02 -2.55472893E-01 -4.39608860E-02
  1.33720552E-01 -5.79565429E-01 -4.08881706E-01 -5.42275769E-02  3.82876660E-01
  6.16436389E-01  9.07360768E-01 -4.41838647E-01 -1.81581397E-01 -2.78620694E-02
 -7.02161674E-01  9.19067142E-02 -4.49732818E-02  2.84977043E-01  2.70861693E-02
 -4.19361482E-01 -1.09715719E-02  8.54459155E-02  1.27445942E-01  5.69312360E-01
  4.37251173E-01 -8.49906715E-04  5.73623477E-03  4.11531223E-01 -1.32813685E-01
 -6.07421622E-01  4.56815286E-02 -5.63443186E-01  4.09217347E-01  8.05311168E-01
 -4.21645682E-01  6.09274815E-01 -4.08210891E-01 -3.42608784E-01 -1.52154003E-02
  1.13810586E-01 -4.26258372E-01  4.06531961E-01 -2.77943046E-02  1.33699970E-02
  8.04539512E-01 -6.32455788E-01 -2.88123921E-02  1.36854848E-02 -7.08626069E-02
  3.91398589E-01 -5.10447043E-01  1.72372896E-01 -4.56696957E-03 -6.04883977E-01
  4.53385487E-01 -3.20986177E-02 -2.99910697E-01  8.66669403E-03  5.12255901E-01
 -2.63512861E-01 -3.35610737E-02  4.64062147E-01  4.42658993E-01 -3.71375559E-02
 -6.54527538E-01 -7.48206432E-01 -6.99393030E-01  6.42609946E-02  9.27425799E-01
 -2.03730075E-02  2.55418852E-01  1.36943815E-01 -1.39315475E-01  4.02727017E-01
 -4.03354254E-01 -1.25917414E-01  2.91660657E-01 -3.24496539E-01 -1.70415781E-01
  8.72484904E-01 -9.89010977E-02 -2.98862620E-01 -2.86971158E-02  3.52178639E-01
 -4.75741452E-01 -1.20847327E-02 -4.81687415E-02 -6.41076715E-01  9.42854916E-01
  7.28487203E-02 -2.40895887E-01 -3.26942013E-02  2.55586070E-01  1.20641888E-01
  6.27091733E-01  2.15103360E-01 -2.79190376E-01 -2.83059346E-01 -6.42511457E-01
 -6.87567676E-01 -3.08092990E-01 -3.43687642E-01 -6.64663103E-01  1.11062998E+00
  1.13740002E-02  4.53892394E-01  2.80870696E-03 -1.52607161E-01 -6.96370416E-02
 -1.27045006E+00 -1.39643949E-01  3.63357083E-01 -8.07545675E-01  4.54448926E-02
 -1.67457421E+00  2.95886504E-02 -5.28567932E-02  2.22841823E-01  3.09191772E+00
 -2.04374601E-02  4.25534979E-01 -1.29600228E+00  2.38752010E-01  6.34052847E-03
 -2.73223475E-01 -9.85473604E-01  3.64767075E-02 -1.57094835E+00 -1.10483360E-01
 -1.00209212E-01 -3.54384196E-01  2.59436545E+00  6.82452234E-01  2.92064104E-01
  9.75131148E-01  2.08414661E-02 -3.06892190E-01 -1.59577294E-02 -4.93020898E-02
  1.71407587E-01  2.57164378E-01 -6.20927815E-02  5.95815247E-01  2.12125498E-01
 -6.97375213E-01 -2.96433048E-01 -5.77929457E-01 -8.35636699E-01
Total SCF Density                          R   N=         253
  2.08989672E+00 -1.87924777E-01  5.49261360E-01  3.02520276E-02 -6.54890184E-02
  6.30245159E-01 -1.75796003E-03 -1.02895762E-02 -6.77176716E-04  8.85288028E-01
  1.97955530E-02 -6.03290853E-02  3.95190659E-02  4.52161197E-02  4.82256525E-01
 -3.11393326E-01  6.29704925E-01 -1.81213730E-01  5.82577827E-02 -2.73717443E-02
  7.67295616E-01  1.40516989E-02 -4.65725087E-02  3.46904959E-01  1.41376724E-02
  4.72093814E-02 -1.09103327E-01  1.92790407E-01 -6.76708974E-03 -7.95193931E-04
  5.67801157E-03  6.23837868E-01  5.64559573E-02  5.43024682E-02  1.38900036E-02
  4.43062561E-01 -8.88181731E-04 -2.93507112E-02  5.73671647E-02  7.18308194E-02
  3.27006617E-01  2.22197189E-03  4.84604751E-02  7.07121209E-02  2.32469335E-01
 -7.14907086E-03  1.93391795E-02  2.69102791E-03  1.25426380E-02  2.96075382E-03
  4.19882990E-02  3.06917419E-03  7.05423437E-03  2.14708229E-02  2.08995485E+00
  2.15492601E-02 -5.40304795E-02 -3.69250697E-03 -1.67288427E-02 -1.61323146E-02
 -1.02942076E-01 -5.91109347E-03 -1.39047077E-02 -4.79926396E-02 -1.89343033E-01
  5.52301559E-01 -3.66108744E-03  7.67968866E-03 -9.57175397E-02  8.69629339E-04
 -2.85078116E-02  1.89873733E-02 -5.19177494E-02  8.53456976E-04 -2.14087851E-02
  1.89329570E-04 -9.73253020E-03  8.99935387E-01  2.20113311E-02 -3.07006578E-02
  1.06550778E-02 -1.51971776E-01 -1.62984721E-01 -1.42771751E-01  6.71327166E-03
 -1.51170131E-01 -1.69301254E-01  1.48203492E-02 -1.61163153E-02 -4.15738284E-03
  7.15023879E-01  9.08305234E-03 -7.28874337E-03  1.60202327E-02  9.30604562E-02
 -3.87493401E-01 -2.00456067E-02 -1.27648028E-02  5.50426284E-02 -2.43066168E-01
 -2.74905735E-02  6.21266781E-02 -1.08925498E-02 -6.84941484E-02  3.97052159E-01
  3.80723819E-02 -8.61639700E-02 -1.11067712E-02 -1.42055505E-01 -6.75553448E-02
 -1.33949611E-01 -1.71429868E-02 -9.51339230E-02 -7.83411186E-02 -3.04775742E-01
  6.16949436E-01  2.02810975E-02 -1.59119543E-01  1.45611211E-01  7.68133131E-01
 -2.66199723E-03  4.79525423E-03 -7.71003715E-02  1.58238837E-03 -1.12138439E-02
  1.49209529E-02 -4.13449072E-02  1.66883851E-03 -9.73788712E-03 -1.14132825E-03
 -5.12919071E-03  6.55166531E-01 -5.84276027E-03 -1.62083433E-02  1.57828689E-02
  4.77277817E-01  8.11053358E-03 -1.18771240E-02  1.98729270E-02 -1.54684736E-01
 -9.94581789E-02 -7.76302925E-02  9.63473869E-03 -1.32317662E-01 -9.94314859E-02
  9.81140014E-03 -2.65889218E-02 -1.04222484E-03  3.89989287E-01 -3.57032258E-02
 -9.14813156E-02 -2.79844952E-03  2.20063877E-01 -1.28736860E-02  2.74625042E-02
  1.95871258E-02  1.08776218E-01 -2.01821227E-01  2.41693080E-02  1.62388143E-04
  7.03664627E-02 -1.25051724E-01 -8.57812905E-03  4.07283383E-02 -2.36373280E-02
 -2.53376983E-02  2.08363711E-01  6.74884348E-02 -2.16009103E-02 -1.83195032E-02
  1.17140452E-01 -2.51334913E-02  5.85617345E-02  3.61982472E-01 -1.62794405E-02
 -2.29555520E-02  1.19776366E-03  1.95299431E-01 -8.20476349E-03  4.68676396E-03
  4.38818963E-03 -1.00907519E-02 -6.67084622E-02  9.06145381E-03  3.80658394E-02
 -1.33111102E-02 -5.38416631E-02  1.59439743E-02  3.11356965E-02  2.28074138E-01
  3.18001192E-02 -5.78074633E-02  1.78892613E-01 -1.87879263E-02 -2.89097500E-02
 -1.00705244E-01  9.63347641E-02 -1.33756268E-02 -1.23867947E-02 -8.65124961E-03
  2.23297922E-02 -2.17639854E-02  5.52119180E-03  4.52232222E-02  3.64555356E-02
 -1.87086560E-02  8.59145614E-03  2.28085649E-02  9.93658841E-02  5.90356161E-02
  3.77904511E-03 -5.67377118E-03 -1.39490787E-02  6.50957532E-02  5.92963124E-02
 -5.23929107E-02  2.44824383E-03  2.60110032E-02  1.65882882E-03 -3.88157729E-02
  9.00043673E-02 -7.77699795E-03  3.68404584E-01 -1.49576273E-01 -2.87113199E-02
 -3.35219946E-03  1.81240931E-01 -5.73542942E-02 -1.83529828E-02 -1.77208509E-02
  2.85341912E-01  1.28366097E-02 -1.05235637E-02 -2.72244080E-02  1.05441289E-01
 -1.22297367E-01 -2.41383022E-02 -1.68629764E-02  5.97506741E-02 -8.67866277E-02
  3.59659227E-02 -5.04363578E-02  7.64586340E-03  1.60183075E-01  7.36481849E-02
 -9.53218818E-02  3.33182462E-03  7.86254631E-02  4.79745318E-02 -1.15038052E-02
 -2.60328810E-03  6.81642884E-02  8.17382204E-02
QEq coupling tensors                       R   N=          24
 -3.86264308E-01  3.14324116E-03  2.54594323E+00  4.83328901E-01  4.60810338E-01
 -2.15967892E+00  2.71868539E+00 -5.05678742E-02  4.90684561E-01 -1.27307775E-01
 -7.08293793E-01 -3.20936996E+00 -3.82785117E-01  1.20490399E-02  2.27038814E-01
  4.78123433E-02 -1.16238391E-02  1.55746304E-01  5.65599619E-01  1.19465775E-02
 -6.52783433E-01  2.58140890E-02  4.92658275E-01  8.71838140E-02
Mulliken Charges                           R   N=           4
 -4.40081641E-01 -3.48528240E-01  3.99237167E-01  3.89372714E-01
ONIOM Charges                              I   N=          16
           0           0           0           0           0           0
           0           0           0           0           0           0
           0           0           0           0
ONIOM Multiplicities                       I   N=          16
           1           0           0           0           0           0
           0           0           0           0           0           0
           0           0           0           0
Atom Layers                                I   N=           4
           1           1           1           1
Atom Modifiers                             I   N=           4
           0           0           0           0
Force Field                                I                0
Int Atom Modified Types                    I   N=           4
           0           0           0           0
Link Atoms                                 I   N=           4
           0           0           0           0
Atom Modified MM Charges                   R   N=           4
  0.00000000E+00  0.00000000E+00  0.00000000E+00  0.00000000E+00
Link Distances                             R   N=          16
  0.00000000E+00  0.00000000E+00  0.00000000E+00  0.00000000E+00  0.00000000E+00
  0.00000000E+00  0.00000000E+00  0.00000000E+00  0.00000000E+00  0.00000000E+00
  0.00000000E+00  0.00000000E+00  0.00000000E+00  0.00000000E+00  0.00000000E+00
  0.00000000E+00
Cartesian Gradient                         R   N=          12
 -3.44744343E-02  6.66379669E-02  1.26069707E-01  9.89731997E-03  1.60686298E-01
 -1.60494127E-01  6.81344455E-03  1.24345075E-02  3.26097893E-02  1.77636698E-02
 -2.39758772E-01  1.81463001E-03
Cartesian Force Constants                  R   N=          78
  3.57983449E-01 -1.00269858E-02  1.66380657E-02 -2.82184599E-02  1.13801941E-01
  4.46614174E-01 -8.16844225E-03  5.60322004E-03  2.31882796E-03 -1.05442899E-01
  3.60355486E-03  8.02736204E-02  9.99643668E-03 -2.93262599E-03  6.44273173E-01
  3.99096557E-02 -8.65339346E-02 -3.26784009E-01 -4.04621684E-02 -4.64945599E-01
  4.69235794E-01 -4.04270276E-01  8.99249810E-03  2.04449768E-02  1.91233545E-03
  4.05253375E-05 -2.63980825E-03  4.10172709E-01  2.85415824E-03 -2.14453522E-02
  3.81831109E-03 -6.84338016E-03  4.73957236E-03  2.23375409E-03 -1.20502358E-02
  1.48372895E-02 -2.45124332E-02  3.83668854E-03 -9.31255290E-03  3.84650399E-02
 -5.11074285E-03 -5.22630192E-02 -2.22027229E-02  5.77478402E-03  6.95567559E-02
  5.44552691E-02 -4.56873237E-03  5.45465517E-03  1.11699006E-01 -7.11454205E-04
  3.19232092E-03 -7.81476847E-03  1.60394577E-02  8.25011621E-03 -1.58339507E-01
  3.56927267E-03 -7.54663339E-02 -1.27616689E-01  4.17278611E-03 -7.29286365E-01
  5.49245780E-01  3.01721234E-03  1.86849030E-03 -4.50072971E-03 -1.07592711E-02
  8.02884209E-01  1.28212374E-02 -3.11046951E-02 -1.10517612E-01 -3.21699454E-04
  4.60059906E-01 -9.01887667E-02  4.39755436E-03 -1.18268492E-02 -7.98118381E-03
 -1.68970923E-02 -4.17128361E-01  2.08687563E-01
Dipole Moment                              R   N=           3
  8.22486649E-01  5.97885626E-01 -3.47545875E-01
Dipole Derivatives                         R   N=          36
 -7.75297284E-02  1.91450352E-02  1.48380981E-01  7.51051841E-02 -4.27674355E-01
 -5.95617100E-02  8.10394694E-02 -7.47331156E-02 -4.28006459E-01 -4.14890767E-01
  2.49816371E-02 -1.39415761E-01 -4.27167245E-03 -2.28573345E-01 -6.60959020E-02
  1.57452340E-02 -5.13960901E-02 -2.87968648E-01  9.64659455E-02  8.90457070E-04
 -3.60494739E-02 -3.92194242E-02  4.03729099E-01  1.89585561E-02 -4.24680649E-02
 -7.54491894E-03  2.53201848E-01  3.95954550E-01 -4.50171294E-02  2.70842535E-02
 -3.16140875E-02  2.52518600E-01  1.06699056E-01 -5.43166385E-02  1.33674125E-01
  4.62773259E-01
Polarizability                             R   N=           6
  6.92734699E+00 -1.15170612E-01  4.77394524E+00 -1.10360106E+00  2.55713225E-01
  1.45759053E+01
