H2O2 XYG3 Force                                                         
Force     RXYG3-Full                                                  6-31G               
Number of atoms                            I                4
Info1-9                                    I   N=           9
          13          12           0           0           0         100
           5           2        -902
Full Title                                 C   N=           2
H2O2 XYG3 Force         
Route                                      C   N=           4
#p RXYG3(Full)/6-31G nosymm SCF(VeryTight) Force
Charge                                     I                0
Multiplicity                               I                1
Number of electrons                        I               18
Number of alpha electrons                  I                9
Number of beta electrons                   I                9
Number of basis functions                  I               22
Number of independent functions            I               22
Number of point charges in /Mol/           I                0
Number of translation vectors              I                0
Atomic numbers                             I   N=           4
           8           8           1           1
Nuclear charges                            R   N=           4
  8.00000000E+00  8.00000000E+00  1.00000000E+00  1.00000000E+00
Current cartesian coordinates              R   N=          12
  0.00000000E+00  0.00000000E+00  0.00000000E+00  0.00000000E+00  0.00000000E+00
  2.83458920E+00  1.88972613E+00  0.00000000E+00  0.00000000E+00  0.00000000E+00
  1.32280829E+00  1.88972613E+00
Number of symbols in /Mol/                 I                0
Force Field                                I                0
Atom Types                                 C   N=           4
                                                
Int Atom Types                             I   N=           4
           0           0           0           0
MM charges                                 R   N=           4
  0.00000000E+00  0.00000000E+00  0.00000000E+00  0.00000000E+00
Integer atomic weights                     I   N=           4
          16          16           1           1
Real atomic weights                        R   N=           4
  1.59949146E+01  1.59949146E+01  1.00782504E+00  1.00782504E+00
Atom fragment info                         I   N=           4
           0           0           0           0
Atom residue num                           I   N=           4
           0           0           0           0
Nuclear spins                              I   N=           4
           0           0           1           1
Nuclear ZEff                               R   N=           4
 -5.60000000E+00 -5.60000000E+00 -1.00000000E+00 -1.00000000E+00
Nuclear ZNuc                               R   N=           4
  8.00000000E+00  8.00000000E+00  1.00000000E+00  1.00000000E+00
Nuclear QMom                               R   N=           4
  0.00000000E+00  0.00000000E+00  0.00000000E+00  0.00000000E+00
Nuclear GFac                               R   N=           4
  0.00000000E+00  0.00000000E+00  2.79284600E+00  2.79284600E+00
MicOpt                                     I   N=           4
          -1          -1          -1          -1
Number of residues                         I                0
Number of secondary structures             I                0
Number of contracted shells                I               10
Number of primitive shells                 I               28
Pure/Cartesian d shells                    I                1
Pure/Cartesian f shells                    I                0
Highest angular momentum                   I                1
Largest degree of contraction              I                6
Shell types                                I   N=          10
           0          -1          -1           0          -1          -1
           0           0           0           0
Number of primitives per shell             I   N=          10
           6           3           1           6           3           1
           3           1           3           1
Shell to atom map                          I   N=          10
           1           1           1           2           2           2
           3           3           4           4
Primitive exponents                        R   N=          28
  5.48467166E+03  8.25234946E+02  1.88046958E+02  5.29645000E+01  1.68975704E+01
  5.79963534E+00  1.55396162E+01  3.59993359E+00  1.01376175E+00  2.70005823E-01
  5.48467166E+03  8.25234946E+02  1.88046958E+02  5.29645000E+01  1.68975704E+01
  5.79963534E+00  1.55396162E+01  3.59993359E+00  1.01376175E+00  2.70005823E-01
  1.87311370E+01  2.82539436E+00  6.40121692E-01  1.61277759E-01  1.87311370E+01
  2.82539436E+00  6.40121692E-01  1.61277759E-01
Contraction coefficients                   R   N=          28
  1.83107443E-03  1.39501722E-02  6.84450781E-02  2.32714336E-01  4.70192898E-01
  3.58520853E-01 -1.10777550E-01 -1.48026263E-01  1.13076702E+00  1.00000000E+00
  1.83107443E-03  1.39501722E-02  6.84450781E-02  2.32714336E-01  4.70192898E-01
  3.58520853E-01 -1.10777550E-01 -1.48026263E-01  1.13076702E+00  1.00000000E+00
  3.34946043E-02  2.34726953E-01  8.13757326E-01  1.00000000E+00  3.34946043E-02
  2.34726953E-01  8.13757326E-01  1.00000000E+00
P(S=P) Contraction coefficients            R   N=          28
  0.00000000E+00  0.00000000E+00  0.00000000E+00  0.00000000E+00  0.00000000E+00
  0.00000000E+00  7.08742682E-02  3.39752839E-01  7.27158577E-01  1.00000000E+00
  0.00000000E+00  0.00000000E+00  0.00000000E+00  0.00000000E+00  0.00000000E+00
  0.00000000E+00  7.08742682E-02  3.39752839E-01  7.27158577E-01  1.00000000E+00
  0.00000000E+00  0.00000000E+00  0.00000000E+00  0.00000000E+00  0.00000000E+00
  0.00000000E+00  0.00000000E+00  0.00000000E+00
Coordinates of each shell                  R   N=          30
  0.00000000E+00  0.00000000E+00  0.00000000E+00  0.00000000E+00  0.00000000E+00
  0.00000000E+00  0.00000000E+00  0.00000000E+00  0.00000000E+00  0.00000000E+00
  0.00000000E+00  2.83458920E+00  0.00000000E+00  0.00000000E+00  2.83458920E+00
  0.00000000E+00  0.00000000E+00  2.83458920E+00  1.88972613E+00  0.00000000E+00
  0.00000000E+00  1.88972613E+00  0.00000000E+00  0.00000000E+00  0.00000000E+00
  1.32280829E+00  1.88972613E+00  0.00000000E+00  1.32280829E+00  1.88972613E+00
Num ILSW                                   I              100
ILSW                                       I   N=         100
           0           1           0           0           2           0
           0           0           0           0         402 67108864000
           0           0           0           0           2           0
           0           0           0           0           1           0
           1           1           0           0           0           0
           0           0      100000           0          -1           0
           0           0           0           0           0           0
           0           0           0           1           0           0
           0           0           1           0           0           0
           0           0           4          52           0           0
           0           0          59           0           0           0
           1         402          -5           0           0           0
           0           0           0           0           0           0
           0           0           0           0           0           0
           0           0           0           0           0           0
           0           0           0           0           0           0
           0           0           0           0
Num RLSW                                   I               52
RLSW                                       R   N=          52
  8.00000000E-01  7.20000000E-01  1.00000000E+00  8.10000000E-01  2.00000000E-01
  0.00000000E+00  0.00000000E+00  1.00000000E+00  0.00000000E+00  0.00000000E+00
  0.00000000E+00  0.00000000E+00  1.00000000E+00  0.00000000E+00  0.00000000E+00
  0.00000000E+00  0.00000000E+00  1.00000000E+00  0.00000000E+00  0.00000000E+00
  0.00000000E+00  0.00000000E+00  1.00000000E+00  0.00000000E+00  0.00000000E+00
  0.00000000E+00  0.00000000E+00  1.00000000E+00  0.00000000E+00  0.00000000E+00
  0.00000000E+00  0.00000000E+00  1.00000000E+00  0.00000000E+00  0.00000000E+00
  0.00000000E+00  0.00000000E+00  0.00000000E+00  3.21100000E-01  3.21100000E-01
  8.00000000E-01  7.20000000E-01  1.00000000E+00  8.10000000E-01  1.96700000E-01
  2.10700000E-01  6.78900000E-01  6.78900000E-01  2.00000000E-01  8.03300000E-01
  0.00000000E+00  0.00000000E+00
MxBond                                     I                2
NBond                                      I   N=           4
           2           2           1           1
IBond                                      I   N=           8
           2           3           1           4           1           0
           2           0
RBond                                      R   N=           8
  1.00000000E+00  1.00000000E+00  1.00000000E+00  1.00000000E+00  1.00000000E+00
  0.00000000E+00  1.00000000E+00  0.00000000E+00
Virial Ratio                               R      2.000428870418934E+00
SCF Energy                                 R     -1.510603337315144E+02
MP2 Energy                                 R     -1.511962822786802E+02
Total Energy                               R     -1.511962822786802E+02
Post-SCF wavefunction norm                 R      1.118307490153759E+00
RMS Force                                  R      1.074637336671531E-01
RMS Density                                R      4.035782701639128E-09
Nuclear derivative order                   I                0
External E-field                           R   N=          35
  0.00000000E+00  0.00000000E+00  0.00000000E+00  0.00000000E+00  0.00000000E+00
  0.00000000E+00  0.00000000E+00  0.00000000E+00  0.00000000E+00  0.00000000E+00
  0.00000000E+00  0.00000000E+00  0.00000000E+00  0.00000000E+00  0.00000000E+00
  0.00000000E+00  0.00000000E+00  0.00000000E+00  0.00000000E+00  0.00000000E+00
  0.00000000E+00  0.00000000E+00  0.00000000E+00  0.00000000E+00  0.00000000E+00
  0.00000000E+00  0.00000000E+00  0.00000000E+00  0.00000000E+00  0.00000000E+00
  0.00000000E+00  0.00000000E+00  0.00000000E+00  0.00000000E+00  0.00000000E+00
IOpCl                                      I                0
IROHF                                      I                0
Alpha Orbital Energies                     R   N=          22
 -1.92373448E+01 -1.91910063E+01 -1.22098047E+00 -9.20607773E-01 -5.42600224E-01
 -5.10614989E-01 -4.46285049E-01 -3.19545922E-01 -3.08853934E-01 -4.91116818E-02
  3.28903905E-02  1.64253042E-01  7.48137788E-01  8.26440021E-01  8.38352473E-01
  8.71380904E-01  9.45486437E-01  9.61407226E-01  1.00881011E+00  1.05680126E+00
  1.43921901E+00  1.58304854E+00
Alpha MO coefficients                      R   N=         484
  9.95080233E-01  2.84546294E-02  1.65250058E-03  3.60257639E-04  1.63352990E-03
 -1.43556072E-02 -2.44748328E-03 -6.92139348E-04 -3.20560202E-03  7.21218682E-04
  2.23660816E-04  6.57917791E-05  1.22025989E-04 -2.29449186E-04  9.24357071E-04
 -2.96881336E-05 -1.14137052E-03 -1.68754923E-03  7.72715880E-04  2.85990225E-03
  6.96107223E-04  2.54449136E-03 -7.65207268E-04  1.29909978E-04  1.42896160E-05
  2.17896144E-04  2.56597579E-04  1.24826877E-03 -2.96270015E-05 -9.29319781E-04
  1.68130635E-03  9.95043422E-01  2.82808781E-02  1.18472999E-04  1.43317611E-03
 -2.03799731E-03 -1.42284138E-02 -6.39839840E-05 -2.10443646E-03  3.53046178E-03
 -9.30374481E-05  1.83089059E-04 -1.95474881E-04  5.24714598E-03 -1.41979714E-01
  3.06294299E-01  6.25370466E-02  2.78518220E-02  1.20463667E-01  3.05365960E-01
  3.70384650E-02  2.26170386E-02  5.77371115E-02 -1.40336269E-01  3.05592507E-01
  8.72050317E-03  7.97197095E-02 -1.42303592E-01  2.56186090E-01  9.39860868E-03
  2.76511187E-02 -3.84204058E-02  7.78713964E-02 -1.27787433E-02  1.81941266E-01
 -4.61108681E-02 -1.63195823E-01  3.68150780E-01  1.36898662E-01 -1.65191247E-03
 -5.58001486E-02  4.28775192E-01  6.69812634E-02  1.07402905E-02  9.74978524E-03
  1.51661321E-01 -3.47457583E-01  4.16614547E-03 -1.13929672E-01  2.85834099E-02
 -3.69887819E-01 -1.61412922E-03 -4.10406686E-02  2.89164828E-02  1.49327418E-01
  6.66201772E-03 -1.39604984E-01 -1.36774976E-03  4.02227358E-02 -8.85938901E-02
  3.58064916E-01 -1.80196493E-01 -1.37817444E-01 -1.70284765E-01  1.82144377E-01
 -1.17525482E-01 -7.40141488E-02 -8.61083405E-02  1.91867066E-01  1.32187017E-01
 -1.78399808E-01  2.06509330E-01  3.31093365E-01  8.90008442E-02 -7.20361124E-02
  9.00338344E-02  2.10805056E-01  1.36851669E-01 -1.75458204E-01 -6.67520943E-02
  5.56513148E-02 -1.22743378E-01  2.98635464E-01  2.62121295E-01 -3.60576534E-02
 -2.16167062E-01  1.73512622E-01  1.62600013E-01 -2.38523330E-02  4.85865468E-02
 -9.82188955E-02  1.14867842E-01  3.56440052E-01 -1.81564565E-02 -2.34260374E-01
  7.89654240E-02  1.75158024E-01  1.62249089E-02  1.51039639E-01  8.06545233E-02
  2.16717562E-01  1.26755106E-01  5.00507630E-02 -1.30156479E-01  1.46979169E-01
 -1.28552171E-01  4.33224770E-01 -1.30031545E-01  1.02159168E-01 -6.52978108E-02
  3.00706610E-01  4.37209267E-02 -1.09767627E-01  1.13159419E-01 -1.56207493E-01
 -3.57141011E-01 -1.20961610E-01  8.89477202E-02 -7.37907713E-02 -2.06604751E-01
  3.33155262E-02  1.31704467E-02 -1.22276189E-02 -1.32335351E-01 -5.24019826E-03
 -4.62383839E-03 -6.08493492E-02  5.45379040E-01  8.05506094E-02  8.13479128E-02
 -2.59370219E-02  4.01479049E-01  9.53349673E-02 -2.01056375E-02  4.45454165E-02
  1.97215632E-01 -3.75213104E-01  8.27572740E-02  4.75102723E-02  1.45821115E-01
 -2.46132977E-01  6.74627007E-02 -5.00171631E-02 -2.42345521E-02 -1.07174068E-01
 -7.73746229E-03 -2.69167755E-02  6.77697123E-02 -2.23087785E-01 -1.63473071E-01
 -9.50504153E-02  8.42200125E-02 -1.27038451E-01 -1.23297990E-01 -8.50417434E-02
  8.88750709E-03 -2.72692065E-02  6.06224463E-01  1.18789789E-01 -8.97923838E-03
 -5.09715421E-03  4.41831486E-01  7.53890294E-02 -2.52301340E-02 -1.21698321E-01
 -5.75108473E-02  2.62700750E-02  2.47360537E-02 -5.64688269E-02  1.54645895E-01
  1.44658881E-02 -5.24592267E-02  5.10408118E-01  3.76845890E-01  4.66208985E-02
 -6.40886742E-02  4.99576306E-01  4.13886196E-02 -1.20706940E-01  1.70749168E-02
  1.29830434E-01  5.33107781E-01 -2.91702164E-01  3.05917877E-02  1.14876573E-01
  5.12580758E-01 -3.80403093E-04 -2.37326058E-01 -7.78095004E-02  1.26129813E-01
  5.92697588E-02 -1.07881797E-01 -3.48460221E-01 -4.23719975E-02  1.07265239E-01
 -7.67196294E-01 -5.05739619E-01 -5.79789838E-02  9.43604685E-02  3.36170951E-02
 -7.89747699E-02 -3.08062885E-02 -4.31758608E-02  6.83390645E-02 -3.63459817E-01
 -3.53448435E-02 -9.20920864E-02  1.14098377E-01  1.85755610E-01  1.28150898E+00
  5.68729495E-03  4.44080011E-01  1.38915577E-02 -3.72968688E-02  1.62975373E-01
 -1.55900174E-01 -8.56674576E-02 -1.88815658E-01  2.65115715E-01 -2.63954075E-01
 -1.94782120E-01  5.39342352E-02 -7.96568671E-02  1.30063384E-02 -2.63080366E-01
 -1.72664735E-02 -1.01199007E+00  2.75586375E-02 -5.12639682E-01  1.19700625E-01
 -9.96981041E-02 -7.27312168E-01  1.21860641E-01  2.09228726E+00  1.41738568E-02
 -1.24905480E-01 -4.42563667E-01 -6.14933146E-02 -3.63253983E-01  3.48936495E-01
  8.88014429E-02  5.33942897E-02  5.27118728E-01 -1.04578366E-02  9.31209921E-02
  8.02953000E-02 -9.31430771E-02 -1.38471337E-01 -2.01760726E-01 -2.61056742E-03
  1.87521306E-01  1.89567561E-01  1.08699574E+00 -9.91086299E-01 -2.35156593E-01
  1.84808491E-01 -2.88923927E-02  1.07869553E-01 -3.36603152E-01 -4.85781053E-01
 -2.56980139E-01  3.59706275E-01  4.53269150E-01  5.32784995E-01  5.28019378E-01
  3.05931748E-02 -1.40508487E-02 -3.78269731E-01 -9.87683916E-02  9.93334240E-02
 -3.97625984E-01  3.24966760E-01 -3.99713599E-01  4.91578869E-01 -2.63470345E-01
  8.85610482E-02  8.44805884E-01 -5.53753536E-01 -3.17624392E-02  1.69792945E-01
  9.27685829E-03  5.30797482E-01 -3.75205865E-01  1.70067987E-01  2.81445429E-02
 -6.01128785E-01  7.80711532E-01  5.22848817E-02 -3.10897920E-01 -2.44900431E-01
  2.88433966E-01 -4.54079058E-01 -3.02963978E-01  2.48639935E-01 -2.63941749E-01
  8.99050377E-01 -2.34704628E-01  1.81362090E-01 -1.89489010E-02  3.03436143E-01
 -3.07792139E-02  3.40088131E-01 -1.61470630E-01  4.64133626E-02  7.98115415E-02
 -4.50697484E-01  1.95448379E-01 -8.71703291E-02 -2.55383966E-01 -4.39572271E-02
  1.33715938E-01 -5.79562283E-01 -4.08911969E-01 -5.42454562E-02  3.82826575E-01
  6.16420944E-01  9.07379040E-01 -4.41752152E-01 -1.81638888E-01 -2.78020937E-02
 -7.02109720E-01  9.18589569E-02 -4.49752528E-02  2.84992920E-01  2.70610770E-02
 -4.19320212E-01 -1.09979366E-02  8.54407120E-02  1.27502573E-01  5.69248766E-01
  4.37288433E-01 -8.48502922E-04  5.74277715E-03  4.11591254E-01 -1.32863275E-01
 -6.07389000E-01  4.56443068E-02 -5.63526319E-01  4.09252607E-01  8.05312424E-01
 -4.21679393E-01  6.09303918E-01 -4.08143443E-01 -3.42643817E-01 -1.52096060E-02
  1.13759198E-01 -4.26234253E-01  4.06581253E-01 -2.78105090E-02  1.34042648E-02
  8.04485738E-01 -6.32522508E-01 -2.88075435E-02  1.36886852E-02 -7.08663159E-02
  3.91372997E-01 -5.10431071E-01  1.72431645E-01 -4.61354823E-03 -6.04840383E-01
  4.53316528E-01 -3.21256864E-02 -2.99865463E-01  8.63291848E-03  5.12350200E-01
 -2.63506850E-01 -3.35571843E-02  4.64020200E-01  4.42699552E-01 -3.71224062E-02
 -6.54528967E-01 -7.48152571E-01 -6.99470777E-01  6.42388796E-02  9.27442508E-01
 -2.03696739E-02  2.55402026E-01  1.36926343E-01 -1.39330262E-01  4.02726986E-01
 -4.03360723E-01 -1.25882787E-01  2.91654990E-01 -3.24456781E-01 -1.70381652E-01
  8.72489864E-01 -9.88382558E-02 -2.98908434E-01 -2.86997489E-02  3.52229093E-01
 -4.75724934E-01 -1.20727084E-02 -4.82038244E-02 -6.41166655E-01  9.42825397E-01
  7.28322757E-02 -2.40867242E-01 -3.26956863E-02  2.55581229E-01  1.20657103E-01
  6.27062159E-01  2.15134011E-01 -2.79162102E-01 -2.83078199E-01 -6.42454908E-01
 -6.87623372E-01 -3.08102695E-01 -3.43633192E-01 -6.64679703E-01  1.11060269E+00
  1.13734225E-02  4.53915591E-01  2.81469759E-03 -1.52604596E-01 -6.96309749E-02
 -1.27048566E+00 -1.39663684E-01  3.63350062E-01 -8.07557944E-01  4.54444153E-02
 -1.67457044E+00  2.95906430E-02 -5.28729242E-02  2.22836845E-01  3.09192287E+00
 -2.04378551E-02  4.25552406E-01 -1.29600208E+00  2.38764948E-01  6.35221359E-03
 -2.73214031E-01 -9.85480811E-01  3.64768797E-02 -1.57094189E+00 -1.10484655E-01
 -1.00212571E-01 -3.54385707E-01  2.59434671E+00  6.82453690E-01  2.92071322E-01
  9.75119570E-01  2.08422775E-02 -3.06916736E-01 -1.59569674E-02 -4.92964930E-02
  1.71411185E-01  2.57205788E-01 -6.20940739E-02  5.95810758E-01  2.12107189E-01
 -6.97373243E-01 -2.96434627E-01 -5.77932865E-01 -8.35644548E-01
Total SCF Density                          R   N=         253
  2.08989672E+00 -1.87924737E-01  5.49261028E-01  3.02519416E-02 -6.54886098E-02
  6.30244321E-01 -1.75790354E-03 -1.02894673E-02 -6.77416785E-04  8.85288765E-01
  1.97955611E-02 -6.03288011E-02  3.95192896E-02  4.52150161E-02  4.82256743E-01
 -3.11393433E-01  6.29705185E-01 -1.81213545E-01  5.82562132E-02 -2.73721351E-02
  7.67295945E-01  1.40517659E-02 -4.65725669E-02  3.46905314E-01  1.41374069E-02
  4.72095705E-02 -1.09103708E-01  1.92791050E-01 -6.76699394E-03 -7.95288854E-04
  5.67814822E-03  6.23837344E-01  5.64564347E-02  5.43011033E-02  1.38900273E-02
  4.43061710E-01 -8.88270274E-04 -2.93502421E-02  5.73669125E-02  7.18306313E-02
  3.27005948E-01  2.22168222E-03  4.84604081E-02  7.07127158E-02  2.32468164E-01
 -7.14908476E-03  1.93390515E-02  2.69100604E-03  1.25428642E-02  2.96075694E-03
  4.19888054E-02  3.06905872E-03  7.05419140E-03  2.14712814E-02  2.08995480E+00
  2.15492714E-02 -5.40301189E-02 -3.69263853E-03 -1.67294638E-02 -1.61328601E-02
 -1.02943163E-01 -5.91094747E-03 -1.39048445E-02 -4.79939968E-02 -1.89342617E-01
  5.52300338E-01 -3.66105255E-03  7.67960253E-03 -9.57173785E-02  8.69456160E-04
 -2.85079117E-02  1.89868539E-02 -5.19174110E-02  8.53231500E-04 -2.14090514E-02
  1.89426863E-04 -9.73315816E-03  8.99937219E-01  2.20113440E-02 -3.07015555E-02
  1.06548814E-02 -1.51970073E-01 -1.62984432E-01 -1.42769495E-01  6.71307909E-03
 -1.51170170E-01 -1.69298896E-01  1.48197589E-02 -1.61139286E-02 -4.15775037E-03
  7.15019883E-01  9.08311261E-03 -7.28881581E-03  1.60202063E-02  9.30611786E-02
 -3.87493762E-01 -2.00462666E-02 -1.27647801E-02  5.50423445E-02 -2.43066272E-01
 -2.74905410E-02  6.21267202E-02 -1.08922974E-02 -6.84938299E-02  3.97052769E-01
  3.80724286E-02 -8.61636223E-02 -1.11058649E-02 -1.42057519E-01 -6.75537794E-02
 -1.33951229E-01 -1.71421390E-02 -9.51344398E-02 -7.83415982E-02 -3.04775960E-01
  6.16948858E-01  2.02810086E-02 -1.59119259E-01  1.45610155E-01  7.68134542E-01
 -2.66201565E-03  4.79529534E-03 -7.71003412E-02  1.58219288E-03 -1.12138262E-02
  1.49206771E-02 -4.13447176E-02  1.66864244E-03 -9.73806777E-03 -1.14136377E-03
 -5.12941624E-03  6.55166202E-01 -5.84292362E-03 -1.62082290E-02  1.57829999E-02
  4.77276378E-01  8.11035854E-03 -1.18770678E-02  1.98732748E-02 -1.54687033E-01
 -9.94584762E-02 -7.76290118E-02  9.63491454E-03 -1.32320109E-01 -9.94308477E-02
  9.81229603E-03 -2.65902935E-02 -1.04221280E-03  3.89991869E-01 -3.57045661E-02
 -9.14847273E-02 -2.79842156E-03  2.20068427E-01 -1.28737285E-02  2.74626765E-02
  1.95867202E-02  1.08776216E-01 -2.01821845E-01  2.41690813E-02  1.62169332E-04
  7.03658539E-02 -1.25052066E-01 -8.57776504E-03  4.07276718E-02 -2.36378848E-02
 -2.53360559E-02  2.08363864E-01  6.74866949E-02 -2.16013160E-02 -1.83194674E-02
  1.17140481E-01 -2.51335592E-02  5.85619390E-02  3.61982285E-01 -1.62797615E-02
 -2.29553091E-02  1.19795519E-03  1.95299751E-01 -8.20488494E-03  4.68678701E-03
  4.38806416E-03 -1.00905413E-02 -6.67083480E-02  9.06091983E-03  3.80658386E-02
 -1.33102937E-02 -5.38415986E-02  1.59441051E-02  3.11355170E-02  2.28074208E-01
  3.18001422E-02 -5.78074284E-02  1.78892186E-01 -1.87868007E-02 -2.89101431E-02
 -1.00705372E-01  9.63348061E-02 -1.33748825E-02 -1.23872197E-02 -8.65092491E-03
  2.23290784E-02 -2.17648045E-02  5.52236151E-03  4.52234252E-02  3.64545140E-02
 -1.87093019E-02  8.59198607E-03  2.28086416E-02  9.93657350E-02  5.90353892E-02
  3.77905560E-03 -5.67415023E-03 -1.39493234E-02  6.50968137E-02  5.92960538E-02
 -5.23920114E-02  2.44803872E-03  2.60112182E-02  1.65967899E-03 -3.88159804E-02
  9.00052680E-02 -7.77780085E-03  3.68403132E-01 -1.49575915E-01 -2.87113086E-02
 -3.35264340E-03  1.81241917E-01 -5.73534497E-02 -1.83533204E-02 -1.77202301E-02
  2.85341388E-01  1.28367180E-02 -1.05240733E-02 -2.72252917E-02  1.05444443E-01
 -1.22298261E-01 -2.41378484E-02 -1.68635857E-02  5.97522182E-02 -8.67862924E-02
  3.59653098E-02 -5.04345527E-02  7.64793392E-03  1.60180463E-01  7.36499093E-02
 -9.53208497E-02  3.33330121E-03  7.86246086E-02  4.79758997E-02 -1.15045359E-02
 -2.60278283E-03  6.81634003E-02  8.17383491E-02
Total MP2 Density                          R   N=         253
  2.09023620E+00 -1.94894594E-01  5.56320934E-01  3.02394723E-02 -7.14677623E-02
  6.34819392E-01 -1.78027060E-03 -1.02499906E-02 -5.83026764E-04  8.78237565E-01
  1.92793469E-02 -6.35457906E-02  3.87295661E-02  4.28322276E-02  4.86912292E-01
 -2.99114291E-01  6.14108957E-01 -1.61526492E-01  5.70446184E-02 -1.86392102E-02
  7.79727989E-01  1.46329332E-02 -4.72633361E-02  3.56147448E-01  1.23173897E-02
  4.52453475E-02 -1.05710728E-01  2.14879091E-01 -5.97932520E-03 -2.60014193E-03
  4.84787714E-03  6.13717769E-01  5.36202025E-02  5.42299472E-02  1.39966143E-02
  4.66401159E-01 -2.24446542E-03 -2.49165301E-02  5.45428810E-02  6.86420476E-02
  3.27836425E-01  1.54647426E-02  5.03103366E-02  7.23264496E-02  2.46773944E-01
 -6.85537107E-03  1.74058367E-02  2.12776191E-03  1.14895457E-02  2.47873403E-03
  4.41159968E-02  2.80269280E-03  7.18010263E-03  2.26250618E-02  2.09059817E+00
  1.96999750E-02 -4.58113702E-02 -1.89500070E-03 -1.55197316E-02 -1.82594124E-02
 -1.06628202E-01 -5.15937138E-03 -1.25738093E-02 -5.49713594E-02 -1.97124214E-01
  5.61502295E-01 -2.69500981E-03  5.30707819E-03 -8.89298293E-02  6.04364275E-04
 -2.40550723E-02  1.32353345E-02 -5.80585184E-02  4.41412670E-04 -2.07633003E-02
  3.04165296E-04 -9.94463705E-03  8.93285050E-01  2.02394978E-02 -2.67382040E-02
  1.02065110E-02 -1.35773709E-01 -1.39909885E-01 -1.32643619E-01  5.41265889E-03
 -1.46922796E-01 -1.57286947E-01  1.47758376E-02 -1.88634745E-02 -4.13732327E-03
  7.14544337E-01  8.60940201E-03 -3.36437588E-03  1.53631177E-02  7.93021792E-02
 -3.27913821E-01 -1.70036181E-02 -1.20232086E-02  5.11178634E-02 -2.23968610E-01
 -2.68628788E-02  6.69819579E-02 -1.08440174E-02 -6.78329656E-02  4.02617423E-01
  4.01596763E-02 -8.78732962E-02 -1.14311241E-02 -1.26948653E-01 -6.29202160E-02
 -1.58025020E-01 -1.77240212E-02 -9.50856381E-02 -8.85300343E-02 -2.93516717E-01
  6.05371335E-01  1.92736363E-02 -1.44831686E-01  1.29625083E-01  7.81086403E-01
 -2.31309324E-03  4.48651125E-03 -8.05513218E-02  1.22461415E-03 -1.12770933E-02
  1.13203864E-02 -4.92239994E-02  1.48766308E-03 -1.07004428E-02 -1.08001626E-03
 -5.61628487E-03  6.42257238E-01 -5.54309592E-03 -1.53621086E-02  1.62490452E-02
  4.96825917E-01  8.65557985E-03 -1.13144559E-02  1.87012160E-02 -1.47392699E-01
 -9.06892982E-02 -7.71380552E-02  9.99326329E-03 -1.35931259E-01 -9.82906418E-02
  1.08970645E-02 -2.67682756E-02 -1.42415513E-03  3.92392243E-01 -3.65212771E-02
 -9.21183372E-02 -3.03114605E-03  2.36879154E-01 -1.38349708E-02  3.37066997E-02
  2.01586072E-02  9.99119592E-02 -1.85288481E-01  3.40290954E-02  8.93210532E-04
  7.03033791E-02 -1.22881898E-01 -6.00453471E-03  3.30640639E-02 -2.31639671E-02
 -2.46199898E-02  2.15677750E-01  5.19960059E-02 -2.25164337E-02 -1.95119709E-02
  1.30422144E-01 -2.62018935E-02  5.78498873E-02  3.36601227E-01 -1.56278055E-02
 -2.33257701E-02  1.20594533E-02  1.97921317E-01 -8.97192435E-03  4.72669700E-03
  4.28078372E-03 -8.56503957E-03 -5.85242468E-02  8.93361792E-03  3.69796726E-02
 -1.54159406E-02 -5.18870765E-02  1.54644402E-02  3.33769299E-02  2.21265235E-01
  2.77986024E-02 -5.19653472E-02  1.52942101E-01 -1.47656838E-02 -2.64353135E-02
 -9.34409026E-02  9.40338126E-02 -1.23544468E-02 -1.21327421E-02 -7.41557893E-03
  1.88154181E-02 -1.66492864E-02  5.59116067E-03  4.08250339E-02  3.39253905E-02
 -1.44964722E-02  8.10136588E-03  2.21276285E-02  9.18136033E-02  5.66216606E-02
  3.74537977E-03 -7.10487301E-03 -1.38540455E-02  5.20381980E-02  4.95691632E-02
 -5.28669069E-02  1.36446822E-03  2.35120416E-02 -1.25087110E-03 -3.85491292E-02
  8.79360538E-02 -7.47697915E-03  3.50783037E-01 -1.43152269E-01 -2.02843445E-02
 -3.49873492E-03  1.85744548E-01 -6.14329057E-02 -1.86562824E-02 -1.75676786E-02
  2.83598049E-01  1.03051111E-02 -8.50477613E-03 -2.22399475E-02  8.87244065E-02
 -1.17160937E-01 -1.99230490E-02 -1.64577287E-02  6.00073042E-02 -8.68106214E-02
  3.09292015E-02 -4.47841197E-02  8.51939326E-03  1.33958649E-01  7.24410325E-02
 -8.97744246E-02  4.10913759E-03  7.29367646E-02  5.02283087E-02 -9.84875905E-03
 -3.54800751E-03  6.23279538E-02  8.05341048E-02
Grdnt Energy                               R     -1.511962822786802E+02
Grdnt NVar                                 I               12
Grdnt IGetFC                               I                7
Internal Forces                            R   N=          12
  3.96739352E-02 -6.71724437E-02 -1.41494837E-01 -8.76638261E-03 -1.57589969E-01
  1.71243521E-01 -1.22649819E-02 -1.30509084E-02 -3.17968323E-02 -1.86425707E-02
  2.37813321E-01  2.04814863E-03
Internal Force Constants                   R   N=          78
  5.32175997E-01  2.45321415E-02  1.45558114E-01  6.28802059E-02  1.09460298E-01
  5.81696181E-01 -2.18020994E-02 -1.16782126E-04 -3.15456671E-02  2.22940140E-02
 -1.04137879E-03  3.15093303E-02 -3.68488291E-02  4.41071721E-04  6.07877184E-01
  0.00000000E+00  7.27000696E-02 -3.54884605E-01  0.00000000E+00 -3.51865420E-01
  7.10074290E-01 -4.76883293E-01  0.00000000E+00  0.00000000E+00  0.00000000E+00
  0.00000000E+00  0.00000000E+00  4.76883293E-01 -2.34717381E-02 -1.71081477E-02
 -2.19503175E-02 -3.32347408E-04  4.25925807E-04  0.00000000E+00  0.00000000E+00
  1.66744408E-02 -6.28935232E-02 -2.25629540E-02 -7.67718314E-02  3.15513075E-02
  5.96296130E-04  0.00000000E+00  0.00000000E+00  2.19557643E-02  7.67794569E-02
 -3.34906040E-02 -2.44153594E-02 -3.13345388E-02 -4.91914586E-04  6.00307070E-04
  0.00000000E+00  0.00000000E+00  2.38040855E-02  3.13422156E-02  3.39825186E-02
 -1.90246511E-05 -1.59959296E-01 -5.06611517E-02  8.05781302E-06 -6.39812440E-01
  2.79165351E-01  0.00000000E+00  7.78111666E-06  1.08935633E-05  1.09668380E-05
  7.99763955E-01  1.33172557E-05 -1.59597414E-01 -1.50039745E-01 -5.64046911E-06
  3.88117953E-01 -3.55189685E-01  0.00000000E+00 -5.44678166E-06 -7.62549433E-06
 -7.67678663E-06 -2.28515093E-01  5.05237056E-01
Mulliken Charges                           R   N=           4
 -4.40080023E-01 -3.48529872E-01  3.99237656E-01  3.89372239E-01
ONIOM Charges                              I   N=          16
           0           0           0           0           0           0
           0           0           0           0           0           0
           0           0           0           0
ONIOM Multiplicities                       I   N=          16
           1           0           0           0           0           0
           0           0           0           0           0           0
           0           0           0           0
Atom Layers                                I   N=           4
           1           1           1           1
Atom Modifiers                             I   N=           4
           0           0           0           0
Force Field                                I                0