H2O2 B2PLYP Freq                                                        
Freq      RB2PLYP-Full                                                6-31G               
Number of atoms                            I                4
Info1-9                                    I   N=           9
          13          12           0           0           0         100
           6           2        -702
Full Title                                 C   N=           2
H2O2 B2PLYP Freq        
Route                                      C   N=           6
#p RB2PLYP(Full)/6-31G nosymm SCF(VeryTight) Freq Int(Grid=9
9590)       
Charge                                     I                0
Multiplicity                               I                1
Number of electrons                        I               18
Number of alpha electrons                  I                9
Number of beta electrons                   I                9
Number of basis functions                  I               22
Number of independent functions            I               22
Number of point charges in /Mol/           I                0
Number of translation vectors              I                0
Atomic numbers                             I   N=           4
           8           8           1           1
Nuclear charges                            R   N=           4
  8.00000000E+00  8.00000000E+00  1.00000000E+00  1.00000000E+00
Current cartesian coordinates              R   N=          12
  0.00000000E+00  0.00000000E+00  0.00000000E+00  0.00000000E+00  0.00000000E+00
  2.83458920E+00  1.88972613E+00  0.00000000E+00  0.00000000E+00  0.00000000E+00
  1.32280829E+00  1.88972613E+00
Number of symbols in /Mol/                 I                0
Force Field                                I                0
Atom Types                                 C   N=           4
                                                
Int Atom Types                             I   N=           4
           0           0           0           0
MM charges                                 R   N=           4
  0.00000000E+00  0.00000000E+00  0.00000000E+00  0.00000000E+00
Integer atomic weights                     I   N=           4
          16          16           1           1
Real atomic weights                        R   N=           4
  1.59949146E+01  1.59949146E+01  1.00782504E+00  1.00782504E+00
Atom fragment info                         I   N=           4
           0           0           0           0
Atom residue num                           I   N=           4
           0           0           0           0
Nuclear spins                              I   N=           4
           0           0           1           1
Nuclear ZEff                               R   N=           4
 -5.60000000E+00 -5.60000000E+00 -1.00000000E+00 -1.00000000E+00
Nuclear ZNuc                               R   N=           4
  8.00000000E+00  8.00000000E+00  1.00000000E+00  1.00000000E+00
Nuclear QMom                               R   N=           4
  0.00000000E+00  0.00000000E+00  0.00000000E+00  0.00000000E+00
Nuclear GFac                               R   N=           4
  0.00000000E+00  0.00000000E+00  2.79284600E+00  2.79284600E+00
MicOpt                                     I   N=           4
          -1          -1          -1          -1
Number of residues                         I                0
Number of secondary structures             I                0
Number of contracted shells                I               10
Number of primitive shells                 I               28
Pure/Cartesian d shells                    I                1
Pure/Cartesian f shells                    I                0
Highest angular momentum                   I                1
Largest degree of contraction              I                6
Shell types                                I   N=          10
           0          -1          -1           0          -1          -1
           0           0           0           0
Number of primitives per shell             I   N=          10
           6           3           1           6           3           1
           3           1           3           1
Shell to atom map                          I   N=          10
           1           1           1           2           2           2
           3           3           4           4
Primitive exponents                        R   N=          28
  5.48467166E+03  8.25234946E+02  1.88046958E+02  5.29645000E+01  1.68975704E+01
  5.79963534E+00  1.55396162E+01  3.59993359E+00  1.01376175E+00  2.70005823E-01
  5.48467166E+03  8.25234946E+02  1.88046958E+02  5.29645000E+01  1.68975704E+01
  5.79963534E+00  1.55396162E+01  3.59993359E+00  1.01376175E+00  2.70005823E-01
  1.87311370E+01  2.82539436E+00  6.40121692E-01  1.61277759E-01  1.87311370E+01
  2.82539436E+00  6.40121692E-01  1.61277759E-01
Contraction coefficients                   R   N=          28
  1.83107443E-03  1.39501722E-02  6.84450781E-02  2.32714336E-01  4.70192898E-01
  3.58520853E-01 -1.10777550E-01 -1.48026263E-01  1.13076702E+00  1.00000000E+00
  1.83107443E-03  1.39501722E-02  6.84450781E-02  2.32714336E-01  4.70192898E-01
  3.58520853E-01 -1.10777550E-01 -1.48026263E-01  1.13076702E+00  1.00000000E+00
  3.34946043E-02  2.34726953E-01  8.13757326E-01  1.00000000E+00  3.34946043E-02
  2.34726953E-01  8.13757326E-01  1.00000000E+00
P(S=P) Contraction coefficients            R   N=          28
  0.00000000E+00  0.00000000E+00  0.00000000E+00  0.00000000E+00  0.00000000E+00
  0.00000000E+00  7.08742682E-02  3.39752839E-01  7.27158577E-01  1.00000000E+00
  0.00000000E+00  0.00000000E+00  0.00000000E+00  0.00000000E+00  0.00000000E+00
  0.00000000E+00  7.08742682E-02  3.39752839E-01  7.27158577E-01  1.00000000E+00
  0.00000000E+00  0.00000000E+00  0.00000000E+00  0.00000000E+00  0.00000000E+00
  0.00000000E+00  0.00000000E+00  0.00000000E+00
Coordinates of each shell                  R   N=          30
  0.00000000E+00  0.00000000E+00  0.00000000E+00  0.00000000E+00  0.00000000E+00
  0.00000000E+00  0.00000000E+00  0.00000000E+00  0.00000000E+00  0.00000000E+00
  0.00000000E+00  2.83458920E+00  0.00000000E+00  0.00000000E+00  2.83458920E+00
  0.00000000E+00  0.00000000E+00  2.83458920E+00  1.88972613E+00  0.00000000E+00
  0.00000000E+00  1.88972613E+00  0.00000000E+00  0.00000000E+00  0.00000000E+00
  1.32280829E+00  1.88972613E+00  0.00000000E+00  1.32280829E+00  1.88972613E+00
Num ILSW                                   I              100
ILSW                                       I   N=         100
           0           1           0           0           2           0
           0           0           0           0         419 67108864000
       99590           0           0           0           2           0
           0           0           0           0           1           0
           1           1           0           0           0           0
           0           0      100000           0          -1           0
           0           0           0           0           0           0
           0           0           0           1           1           0
           0           0           1           0           0           0
           0           0           4          52           0           0
           0           0          47           0           0           0
          -1          -1          -1           0           0           0
           0           0           0           0           0           0
           0           0           0           0           0           0
           0           0           0           0           0           0
           0           0           0           0           0           0
           0           0           0           0
Num RLSW                                   I               52
RLSW                                       R   N=          52
  4.70000000E-01  4.70000000E-01  7.30000000E-01  7.30000000E-01  5.30000000E-01
  0.00000000E+00  0.00000000E+00  1.00000000E+00  0.00000000E+00  0.00000000E+00
  0.00000000E+00  0.00000000E+00  1.00000000E+00  0.00000000E+00  0.00000000E+00
  0.00000000E+00  0.00000000E+00  1.00000000E+00  0.00000000E+00  0.00000000E+00
  0.00000000E+00  0.00000000E+00  1.00000000E+00  0.00000000E+00  0.00000000E+00
  0.00000000E+00  0.00000000E+00  1.00000000E+00  0.00000000E+00  0.00000000E+00
  0.00000000E+00  0.00000000E+00  1.00000000E+00  0.00000000E+00  0.00000000E+00
  0.00000000E+00  0.00000000E+00  0.00000000E+00  2.70000000E-01  2.70000000E-01
  4.70000000E-01  4.70000000E-01  7.30000000E-01  7.30000000E-01  2.31488553E+12
  2.31488553E+12  2.31488553E+12  2.31488553E+12  5.30000000E-01  2.31488553E+12
  0.00000000E+00  0.00000000E+00
MxBond                                     I                2
NBond                                      I   N=           4
           2           2           1           1
IBond                                      I   N=           8
           2           3           1           4           1           0
           2           0
RBond                                      R   N=           8
  1.00000000E+00  1.00000000E+00  1.00000000E+00  1.00000000E+00  1.00000000E+00
  0.00000000E+00  1.00000000E+00  0.00000000E+00
Virial Ratio                               R      1.999121845918633E+00
SCF Energy                                 R     -1.511116093313414E+02
MP2 Energy                                 R     -1.512039968828007E+02
Total Energy                               R     -1.512039968828007E+02
Post-SCF wavefunction norm                 R      1.519803892779376E+00
RMS Force                                  R      1.073909441143642E-01
RMS Density                                R      8.841410716686347E-09
NImag                                      I                2
Nuclear derivative order                   I                0
External E-field                           R   N=          35
  0.00000000E+00  0.00000000E+00  0.00000000E+00  0.00000000E+00  0.00000000E+00
  0.00000000E+00  0.00000000E+00  0.00000000E+00  0.00000000E+00  0.00000000E+00
  0.00000000E+00  0.00000000E+00  0.00000000E+00  0.00000000E+00  0.00000000E+00
  0.00000000E+00  0.00000000E+00  0.00000000E+00  0.00000000E+00  0.00000000E+00
  0.00000000E+00  0.00000000E+00  0.00000000E+00  0.00000000E+00  0.00000000E+00
  0.00000000E+00  0.00000000E+00  0.00000000E+00  0.00000000E+00  0.00000000E+00
  0.00000000E+00  0.00000000E+00  0.00000000E+00  0.00000000E+00  0.00000000E+00
IOpCl                                      I                0
IROHF                                      I                0
Alpha Orbital Energies                     R   N=          22
 -1.98375600E+01 -1.97958364E+01 -1.37069630E+00 -1.05291354E+00 -6.34391150E-01
 -6.01467086E-01 -5.07079677E-01 -4.06178113E-01 -3.98889462E-01  3.64053574E-02
  9.54638117E-02  2.22395266E-01  8.57532459E-01  9.30081376E-01  9.50491583E-01
  9.73154633E-01  1.05637916E+00  1.07644196E+00  1.12904617E+00  1.17145705E+00
  1.54772794E+00  1.70194384E+00
Alpha MO coefficients                      R   N=         484
  9.95434407E-01  2.56208695E-02  1.62326025E-03  3.39308941E-04  1.61149827E-03
 -1.18855393E-02 -2.15192972E-03 -5.99708062E-04 -2.73932041E-03  1.60317201E-03
  2.60006059E-04  5.01599710E-05  8.62271543E-05 -2.41173875E-04  6.69734777E-04
 -9.50098708E-06 -9.74461841E-04 -1.35243805E-03  6.91827269E-04  2.42005733E-03
  6.04643639E-04  2.16390043E-03 -1.64055845E-03  1.49972772E-04  9.92099274E-06
  1.69795181E-04  2.62166188E-04  9.37771779E-04 -4.19011727E-05 -7.76692920E-04
  1.34019889E-03  9.95396737E-01  2.55024103E-02  1.15385679E-04  1.37959225E-03
 -2.01588330E-03 -1.17868670E-02 -5.70881849E-05 -1.84588653E-03  3.02161057E-03
 -5.42742673E-05  1.56311470E-04 -1.16862274E-04  4.44999293E-03 -1.42017765E-01
  3.07424653E-01  5.50899211E-02  2.75840727E-02  1.10287150E-01  3.08244976E-01
  3.54543764E-02  2.25970769E-02  5.47908691E-02 -1.43026934E-01  3.12881064E-01
  8.60292359E-03  7.71626560E-02 -1.29906559E-01  2.67846428E-01  9.05757984E-03
  2.83693151E-02 -3.73731483E-02  7.50481258E-02 -1.39943113E-02  1.76692742E-01
 -4.92100866E-02 -1.64998987E-01  3.71070881E-01  1.17598738E-01  1.68286552E-04
 -5.59354641E-02  4.42337049E-01  6.23652408E-02  1.13573437E-02  1.35889182E-02
  1.52866255E-01 -3.50112454E-01  3.24764622E-03 -1.06731651E-01  1.39855718E-02
 -3.82989592E-01 -2.31324814E-03 -4.01876854E-02  2.83046024E-02  1.39512581E-01
  8.95662576E-04 -1.32401719E-01  2.63835156E-03  2.13922426E-02 -4.80324523E-02
  2.69134343E-01 -2.51559581E-01 -9.49272201E-02 -9.60285381E-02  1.40222946E-01
 -1.60262305E-01 -5.07602779E-02 -8.63806392E-02  1.92432751E-01  1.11906626E-01
 -2.89806812E-01  1.85812462E-01  3.47470242E-01  7.47198434E-02 -1.31672184E-01
  7.55576395E-02  1.61917886E-01  9.77553429E-02 -2.31202986E-01 -8.61679578E-02
  6.41252355E-02 -1.46904547E-01  3.95955761E-01  1.93203194E-01 -1.52334197E-02
 -2.42418867E-01  2.33207140E-01  1.20509861E-01 -6.61526001E-03  2.86654230E-02
 -5.74330419E-02  1.76845280E-01  2.71438789E-01 -5.55591661E-03 -1.44057850E-01
  1.20387371E-01  1.41352690E-01  1.67638485E-02  2.01212867E-01  1.04124442E-01
  1.53149269E-01  7.79964719E-02  3.68634204E-02 -1.06458814E-01  7.61930735E-02
 -1.56933739E-01  4.32064997E-01 -7.69539864E-02  6.45719038E-02 -8.71272958E-02
  3.13070033E-01  4.42904907E-02 -1.17431175E-01  1.15021459E-01 -1.55557226E-01
 -3.63278455E-01 -1.22585292E-01  8.97549382E-02 -7.74173124E-02 -2.24565148E-01
 -8.72440894E-03 -1.64317939E-02 -8.46259503E-03 -1.34514800E-01 -1.29565961E-02
  1.49883239E-02 -1.27664990E-01  4.78923365E-01  5.55784394E-02  1.05545103E-01
 -6.94028000E-02  3.57025551E-01  7.18286029E-02 -1.55142834E-02  3.31198163E-02
  3.48214477E-01 -3.29588691E-01  6.92478385E-02  4.32003037E-02  2.56182121E-01
 -2.20681464E-01  5.20463370E-02 -8.62857259E-02 -4.11809649E-02 -1.00590305E-01
 -7.49633708E-03 -2.55109070E-02  7.24772384E-02 -2.10905567E-01 -2.95909198E-01
 -1.34781751E-01  5.77387558E-02 -1.31399919E-01 -2.25139824E-01 -1.26841404E-01
  1.06411771E-02 -3.00886269E-02  5.22075759E-01  2.19277781E-01 -1.42631849E-02
 -9.42820971E-03  3.80815551E-01  1.42803699E-01 -3.02653526E-02 -1.06070740E-01
 -4.85917999E-02  5.71815387E-02  3.63434927E-02 -6.30557340E-02  1.59389106E-01
  3.95685364E-02 -4.65506979E-02  4.75034845E-01  4.79145518E-01  9.66704913E-02
 -6.82987523E-02  5.32080276E-01  4.15114750E-02 -1.14926839E-01  1.91783165E-02
  1.21336478E-01  5.01995239E-01 -3.14699910E-01  3.65959989E-02  1.19073592E-01
  5.53449786E-01 -8.83489514E-03 -3.77703910E-01 -8.34978385E-02  1.40213613E-01
  5.30622295E-02 -7.84339813E-02 -3.12719583E-01 -4.56482165E-02  1.44609767E-01
 -7.60793946E-01 -5.12214406E-01 -7.28238836E-02  1.49029523E-01  3.86515836E-02
 -8.53863201E-02 -2.64595511E-02 -3.51893472E-02  1.07246192E-01 -4.35900960E-01
 -3.27618693E-02 -9.76842163E-02  1.76183906E-01  1.51954071E-01  1.28059463E+00
 -3.25281021E-03  5.20376605E-01  1.38762890E-02 -3.75353673E-02  1.58199094E-01
 -1.38388998E-01 -9.68640379E-02 -1.84302768E-01  2.92266711E-01 -2.67171805E-01
 -2.28730561E-01  5.03410546E-02 -5.84807927E-02  1.22945013E-02 -2.44046433E-01
 -3.73131303E-02 -1.01376298E+00  2.82443887E-02 -5.29698625E-01  9.06230295E-02
 -8.82688417E-02 -7.90165033E-01  1.04720869E-01  2.12315875E+00  2.13535888E-02
 -1.47853650E-01 -4.00273132E-01 -4.57348425E-02 -3.37834624E-01  2.73128669E-01
 -1.09554727E-02  4.50251869E-02  4.49614891E-01 -1.64247721E-02  1.10846034E-01
  1.03023560E-01 -9.22729349E-02 -1.29177382E-01 -1.42618003E-01 -1.52604721E-02
  2.32000159E-01  9.02248531E-02  1.13299252E+00 -9.45929435E-01 -3.11402878E-01
  1.95985315E-01 -2.93270297E-02  8.49706387E-02 -3.39374430E-01 -3.46794454E-01
 -3.76864160E-01  4.87387563E-01  4.21254072E-01  3.79220178E-01  7.76234292E-01
  4.69115165E-02 -9.11989197E-02 -3.48711861E-01  3.00696740E-02 -6.64399386E-02
 -5.51368287E-01  3.04874304E-01 -5.59584185E-01  8.14067687E-01 -1.88041169E-01
  3.97547756E-02  8.54222435E-01 -4.03394306E-01  1.76439891E-02 -9.21737709E-02
 -9.60550783E-02 -6.63162299E-01  3.02970042E-01 -1.11326299E-01  9.08060573E-02
  7.46593440E-01 -5.92635911E-01 -4.28244570E-02  3.07385882E-01  9.08875481E-02
 -3.12207373E-01  4.58480405E-01  1.77249719E-01 -1.06986727E-01  1.93501273E-01
 -7.32183176E-01  1.12732391E-01 -1.07329885E-01  1.73654988E-01 -4.11280519E-01
 -3.60934161E-02  3.74081631E-01 -1.91122909E-01  5.67628928E-02 -7.57228183E-03
 -4.23870804E-01  2.36697607E-01 -9.80842710E-02 -1.06169930E-01 -3.59354462E-02
  1.02443080E-01 -6.34222962E-01 -3.81605261E-01 -6.68209899E-02  3.09813874E-01
  6.67573838E-01  8.28676836E-01 -3.40380241E-01 -2.25318178E-01  3.23341079E-04
 -6.23003227E-01  7.07789936E-02  4.88843834E-02 -3.32796891E-01  1.11590047E-01
  2.46307692E-01  7.28611162E-02 -3.50290114E-02 -3.89167536E-01 -3.11839615E-01
 -4.49825765E-01 -6.86009615E-04  5.92581592E-04 -5.27320763E-01  2.92991168E-01
  5.01826522E-01 -2.31130073E-02  7.43078403E-01 -5.52877647E-01 -6.95110033E-01
  5.03683173E-01 -5.77400958E-01  2.67092829E-01  3.73529093E-01  1.49922695E-03
  2.34838841E-03 -4.65045467E-01  4.94376940E-01 -7.74844837E-03 -1.50087258E-03
  7.76328729E-01 -7.51500141E-01 -1.94642693E-01  1.26006443E-02 -4.76947047E-02
  2.31480345E-01 -4.17318947E-01  3.80495439E-01 -5.88758035E-02 -3.85887521E-01
  2.41870028E-01 -3.06661255E-01 -1.21049610E-01 -2.49231716E-01  6.25346231E-01
 -8.54047425E-02 -3.36633407E-02  4.79719236E-01  4.17829078E-01 -8.02613941E-03
 -6.65825203E-01 -7.83012865E-01 -6.27871822E-01  2.43009322E-02  8.90212502E-01
 -2.01167520E-02  2.83495760E-01  1.29297315E-01 -7.05325187E-02  4.50207470E-01
 -4.84347762E-01 -1.22578023E-01  1.62982645E-01 -3.74428963E-01 -1.77074701E-01
  7.98402900E-01 -6.40093228E-02 -1.76262586E-01 -2.49125049E-02  3.17211650E-01
 -4.91696387E-01 -1.62943467E-02 -7.06883186E-04 -5.92576734E-01  9.33765648E-01
  8.66081647E-02 -2.96227335E-01 -3.12259726E-02  2.33742402E-01  9.66384674E-02
  6.75439915E-01  1.84879986E-01 -2.34849034E-01 -2.44929491E-01 -6.88696474E-01
 -6.57206273E-01 -2.56303758E-01 -4.02101220E-01 -6.70448116E-01  1.11247486E+00
  1.07269310E-02  4.70767323E-01  5.03860219E-03 -1.54194191E-01 -7.48740624E-02
 -1.29412237E+00 -1.47013741E-01  3.58655818E-01 -8.00584173E-01  4.53989869E-02
 -1.67233732E+00  3.11510547E-02 -5.65279840E-02  2.34979060E-01  3.06903014E+00
 -2.17787333E-02  4.12054321E-01 -1.29063360E+00  2.43005652E-01  1.42560131E-02
 -2.51270551E-01 -9.71049256E-01  3.59191059E-02 -1.56319183E+00 -1.10760682E-01
 -1.01373346E-01 -3.70085752E-01  2.56713297E+00  6.76404138E-01  2.92752464E-01
  9.72615328E-01  2.05961300E-02 -3.16162361E-01 -1.61779944E-02 -4.43509037E-02
  1.84604821E-01  2.70524191E-01 -6.09084272E-02  5.86738046E-01  1.90434207E-01
 -6.95755899E-01 -2.91228030E-01 -5.77985417E-01 -8.27435612E-01
Total SCF Density                          R   N=         253
  2.09006665E+00 -1.91595673E-01  5.47118217E-01  3.07595794E-02 -7.15811755E-02
  6.25332297E-01 -2.08271291E-03 -1.06193167E-02 -7.07141926E-04  8.85857584E-01
  2.16168186E-02 -6.98899370E-02  4.43432288E-02  4.53309017E-02  4.64946354E-01
 -3.03741867E-01  6.25560331E-01 -1.68733477E-01  6.28665618E-02 -2.62448156E-02
  7.58406022E-01  1.42369069E-02 -4.88921815E-02  3.61710987E-01  1.25599692E-02
  5.06140183E-02 -1.02679293E-01  2.10902662E-01 -6.94720833E-03 -1.10137602E-03
  4.85813017E-03  6.31010678E-01  5.55524087E-02  5.91185956E-02  1.26418110E-02
  4.53187126E-01 -8.33021872E-04 -3.24382065E-02  5.95333500E-02  7.16135377E-02
  3.33104999E-01  1.11546234E-02  5.20655628E-02  7.13111139E-02  2.50154602E-01
 -6.79003800E-03  1.74123147E-02  2.64646527E-03  1.19769977E-02  1.08388228E-03
  4.27201276E-02  3.05658337E-03  6.46890475E-03  2.23346906E-02  2.09048185E+00
  1.99874508E-02 -4.74145722E-02 -3.43204118E-03 -1.54684945E-02 -1.62727820E-02
 -1.04327799E-01 -6.16300038E-03 -1.17136959E-02 -5.50758229E-02 -1.94378531E-01
  5.54489955E-01 -3.12784370E-03  6.61869470E-03 -8.96057677E-02  9.68116918E-04
 -2.77320399E-02  1.70319802E-02 -5.57994398E-02  7.36529742E-04 -2.30681379E-02
  6.25579108E-05 -9.49500944E-03  9.01856550E-01  2.17683523E-02 -2.86464914E-02
  1.03159325E-02 -1.41729153E-01 -1.54454504E-01 -1.43106300E-01  5.51946656E-03
 -1.47599933E-01 -1.68987225E-01  1.47859591E-02 -1.81165487E-02 -4.58326246E-03
  7.11848274E-01  1.11966067E-02 -8.36762910E-03  1.75694162E-02  8.59958264E-02
 -3.67706113E-01 -3.18224294E-02 -1.07256833E-02  5.27253853E-02 -2.46546567E-01
 -2.96293641E-02  7.17300991E-02 -1.27589476E-02 -7.26351281E-02  3.77205017E-01
  3.83945238E-02 -8.45418780E-02 -1.33473977E-02 -1.30405078E-01 -5.82444784E-02
 -1.43726536E-01 -1.78735948E-02 -8.62168310E-02 -8.26201789E-02 -2.97862131E-01
  6.17682439E-01  2.09763700E-02 -1.51020364E-01  1.45791074E-01  7.54065318E-01
 -2.64249692E-03  5.07291740E-03 -7.63564479E-02  1.26275236E-03 -1.22147568E-02
  1.50579088E-02 -4.65874465E-02  1.23651104E-03 -1.18536001E-02 -1.31239012E-03
 -4.81364837E-03  6.56133242E-01 -5.84632666E-03 -1.65829551E-02  1.68138688E-02
  4.77738561E-01  8.48973822E-03 -1.07459674E-02  1.90473728E-02 -1.49177449E-01
 -9.84823036E-02 -7.94663862E-02  9.11040997E-03 -1.31742845E-01 -1.02889208E-01
  9.80091340E-03 -2.61434870E-02 -1.63787060E-03  3.98188866E-01 -3.73792729E-02
 -8.89872123E-02 -3.14554501E-03  2.29658034E-01 -1.24059067E-02  3.07619246E-02
  2.17375236E-02  1.04658692E-01 -2.06378225E-01  2.14527398E-02  1.62286718E-03
  6.86962708E-02 -1.36657702E-01 -8.88815423E-03  4.21117708E-02 -2.46332722E-02
 -2.42103763E-02  2.09613954E-01  6.60281273E-02 -2.21766835E-02 -1.64073338E-02
  1.24506328E-01 -2.62398321E-02  5.89396330E-02  3.53025830E-01 -1.66619576E-02
 -2.44601378E-02  1.18998677E-02  2.00703439E-01 -9.17307625E-03  1.96152862E-03
  4.28952780E-03 -8.80969683E-03 -6.32488316E-02  1.02590961E-02  3.97549947E-02
 -1.54241303E-02 -5.32046308E-02  1.64269748E-02  3.48576191E-02  2.21145652E-01
  2.83681472E-02 -5.25786425E-02  1.62259931E-01 -1.52484056E-02 -3.05889085E-02
 -8.89254553E-02  9.14531808E-02 -1.15143101E-02 -1.67014583E-02 -7.53479820E-03
  2.03427668E-02 -2.47247499E-02  8.46400258E-03  4.64518647E-02  3.11379034E-02
 -2.16370026E-02  9.66370464E-03  2.53891786E-02  8.94134929E-02  4.98551387E-02
  3.52418680E-03 -5.30144708E-03 -1.45649392E-02  5.76690783E-02  5.91084655E-02
 -5.13940243E-02  4.45324424E-04  1.98960570E-02  2.95062549E-03 -3.89422559E-02
  8.85827040E-02 -7.69321821E-03  3.66697529E-01 -1.46646849E-01 -1.64179817E-02
 -3.36980771E-03  1.86887125E-01 -6.06393321E-02 -1.82861327E-02 -1.54833458E-02
  2.78240384E-01  1.21392277E-02 -9.14088697E-03 -2.33237635E-02  8.43108556E-02
 -1.24025687E-01 -2.59956483E-02 -1.68390944E-02  4.59663709E-02 -9.21265925E-02
  3.21980335E-02 -4.56265193E-02  9.25603434E-03  1.46871312E-01  7.56090935E-02
 -7.91919531E-02  4.69120785E-03  7.62331758E-02  5.08768741E-02 -7.23323587E-03
  2.29589543E-03  5.35887453E-02  7.08654421E-02
Total MP2 Density                          R   N=         253
  2.09006794E+00 -1.91745386E-01  5.53958835E-01  3.01641637E-02 -6.77297680E-02
  6.32584038E-01 -1.78344296E-03 -1.00751982E-02 -5.66886903E-04  8.79541200E-01
  1.93695120E-02 -6.10557113E-02  3.82953547E-02  4.37896671E-02  4.85475609E-01
 -3.04618921E-01  6.19851672E-01 -1.73096322E-01  5.71838651E-02 -2.36001152E-02
  7.76126452E-01  1.45834072E-02 -4.68196171E-02  3.48946309E-01  1.35283487E-02
  4.59715236E-02 -1.09076850E-01  2.03047987E-01 -6.30040601E-03 -1.84058296E-03
  5.47654825E-03  6.17525206E-01  5.52614969E-02  5.43266626E-02  1.42558250E-02
  4.58019689E-01 -1.28936473E-03 -2.69310589E-02  5.58298728E-02  7.00262473E-02
  3.25491682E-01  7.41591309E-03  4.96515134E-02  7.20814037E-02  2.38032875E-01
 -7.02220015E-03  1.84717202E-02  2.39604379E-03  1.19886299E-02  2.92115966E-03
  4.30952928E-02  2.94456900E-03  7.23765121E-03  2.19295964E-02  2.09026203E+00
  2.06462979E-02 -5.01528325E-02 -2.81708398E-03 -1.59961910E-02 -1.70037420E-02
 -1.04650046E-01 -5.56306632E-03 -1.34236823E-02 -5.05800651E-02 -1.93402044E-01
  5.57446559E-01 -3.32095010E-03  6.86390589E-03 -9.22918739E-02  7.22788985E-04
 -2.62045127E-02  1.69856672E-02 -5.43953136E-02  6.45218916E-04 -2.08753980E-02
  2.51896468E-04 -9.80956774E-03  8.94063054E-01  2.10759602E-02 -2.89301903E-02
  1.04086538E-02 -1.44424307E-01 -1.52493460E-01 -1.37599538E-01  6.17061224E-03
 -1.49649240E-01 -1.63277476E-01  1.47638616E-02 -1.71718618E-02 -3.99457910E-03
  7.13940089E-01  8.67773912E-03 -5.42175582E-03  1.55039154E-02  8.65625001E-02
 -3.61300544E-01 -1.77519183E-02 -1.28752629E-02  5.31563067E-02 -2.34277796E-01
 -2.69228249E-02  6.37789326E-02 -1.03081328E-02 -6.73713090E-02  4.01380692E-01
  3.92116779E-02 -8.73818678E-02 -1.08156511E-02 -1.35469567E-01 -6.55540228E-02
 -1.46823656E-01 -1.72706543E-02 -9.59936017E-02 -8.33760178E-02 -2.98536611E-01
  6.08616089E-01  1.96708155E-02 -1.53257617E-01  1.37289561E-01  7.77703552E-01
 -2.58829312E-03  4.85367373E-03 -7.88406820E-02  1.43643172E-03 -1.10672091E-02
  1.40189252E-02 -4.50515014E-02  1.58215567E-03 -1.00715549E-02 -1.08322893E-03
 -5.46928954E-03  6.48030139E-01 -5.61166593E-03 -1.54993582E-02  1.59755710E-02
  4.90930404E-01  8.50145727E-03 -1.20518783E-02  1.94517297E-02 -1.51809336E-01
 -9.51971362E-02 -7.76237159E-02  9.97813873E-03 -1.35273325E-01 -9.86892354E-02
  1.06323545E-02 -2.70967707E-02 -1.11636891E-03  3.89590832E-01 -3.60653353E-02
 -9.31634781E-02 -2.90164540E-03  2.29162054E-01 -1.33336308E-02  3.01120038E-02
  1.95697186E-02  1.04449581E-01 -1.94318475E-01  2.98979096E-02  1.56083457E-04
  7.06833281E-02 -1.23589226E-01 -7.37534465E-03  3.66484602E-02 -2.29628367E-02
 -2.50212460E-02  2.11492430E-01  5.96756874E-02 -2.19785172E-02 -1.95177636E-02
  1.23599402E-01 -2.55797178E-02  5.81495448E-02  3.48926509E-01 -1.58248357E-02
 -2.29985299E-02  5.45621770E-03  1.95947272E-01 -8.53766042E-03  5.28073419E-03
  4.33630827E-03 -9.41463476E-03 -6.30854344E-02  8.79049683E-03  3.71697053E-02
 -1.42748679E-02 -5.34946019E-02  1.55716291E-02  3.18089567E-02  2.25460694E-01
  2.97709827E-02 -5.49429787E-02  1.68899527E-01 -1.76091945E-02 -2.74252429E-02
 -9.77796571E-02  9.67075834E-02 -1.33290103E-02 -1.16320920E-02 -8.12746912E-03
  2.06637216E-02 -1.99984743E-02  5.16458339E-03  4.33305655E-02  3.54625583E-02
 -1.77913200E-02  8.24109365E-03  2.25424799E-02  9.70277703E-02  5.85841523E-02
  3.76609773E-03 -6.38232437E-03 -1.37762530E-02  5.86905630E-02  5.41351427E-02
 -5.29200741E-02  2.10316224E-03  2.50329573E-02 -1.74154242E-04 -3.86227327E-02
  8.91130443E-02 -7.58799952E-03  3.58692895E-01 -1.45910467E-01 -2.56239875E-02
 -3.44529804E-03  1.83595860E-01 -5.90267328E-02 -1.83451532E-02 -1.77977864E-02
  2.85674931E-01  1.12049814E-02 -8.88671297E-03 -2.57278029E-02  9.94317640E-02
 -1.20444814E-01 -2.11272729E-02 -1.73089425E-02  6.06122716E-02 -8.71717119E-02
  3.30412974E-02 -4.69077671E-02  7.92655873E-03  1.49812612E-01  7.34987731E-02
 -9.23270260E-02  3.73031421E-03  7.69936326E-02  4.91486705E-02 -1.11854508E-02
 -3.23506405E-03  6.64863413E-02  8.10426180E-02
Grdnt Energy                               R     -1.512039968828007E+02
Grdnt NVar                                 I               12
Grdnt IGetFC                               I                4
Internal Forces                            R   N=          12
  3.48134169E-02 -6.72011140E-02 -1.36445626E-01 -9.32992096E-03 -1.60718201E-01
  1.69237368E-01 -7.30765384E-03 -1.27230480E-02 -3.21707972E-02 -1.81758421E-02
  2.40642363E-01 -6.20945324E-04
Internal Force Constants                   R   N=          78
  3.49121991E-01 -9.79345266E-03  1.39912850E-02 -3.46967533E-02  1.15306464E-01
  4.42157802E-01 -3.28342883E-03  5.32913285E-03  3.54878800E-03 -1.08799843E-01
  3.34258436E-03  8.35129369E-02  8.01187417E-03 -2.84755911E-03  6.41799200E-01
  4.46455106E-02 -8.61345724E-02 -3.20854891E-01 -4.17589017E-02 -4.63739543E-01
  4.65242714E-01 -4.00446031E-01  8.81951035E-03  2.54872856E-02  2.77717597E-04
  3.40248260E-04 -6.14174845E-03  4.07898617E-01  2.66315102E-03 -2.14737635E-02
  3.96252674E-03 -6.78546408E-03  4.35259648E-03  2.27809717E-03 -1.21438407E-02
  1.52559949E-02 -2.25226742E-02  3.63887403E-03 -7.44013540E-03  3.81628690E-02
 -5.10684695E-03 -5.44457532E-02 -2.43379174E-02  6.08822591E-03  6.98113138E-02
  5.46074687E-02 -4.35519055E-03  5.66067971E-03  1.11805554E-01 -8.35273508E-04
  3.25513960E-03 -7.73030379E-03  1.62661538E-02  8.69772264E-03 -1.58682719E-01
  3.78771728E-03 -7.60304584E-02 -1.27280865E-01  4.30389034E-03 -7.29664734E-01
  5.47596018E-01  2.98408208E-03  1.86517207E-03 -4.62025299E-03 -1.10756897E-02
  8.03830020E-01  1.25739169E-02 -3.28107661E-02 -1.13862776E-01  4.72446990E-05
  4.60834516E-01 -8.99420699E-02  4.99238033E-03 -1.23288498E-02 -7.92542520E-03
 -1.76135419E-02 -4.15694900E-01  2.11730271E-01
Mulliken Charges                           R   N=           4
 -4.75235817E-01 -3.58665520E-01  4.19171875E-01  4.14729461E-01
ONIOM Charges                              I   N=          16
           0           0           0           0           0           0
           0           0           0           0           0           0
           0           0           0           0
ONIOM Multiplicities                       I   N=          16
           1           0           0           0           0           0
           0           0           0           0           0           0
           0           0           0           0
Atom Layers                                I   N=           4
           1           1           1           1
Atom Modifiers                             I   N=           4
           0           0           0           0