NH3 XYGJOS Freq                                                         
Freq      RXYGJOS-Full                                                6-31G               
Number of atoms                            I                4
Info1-9                                    I   N=           9
          13          12           0           0           0         100
           6           2           2
Full Title                                 C   N=           2
NH3 XYGJOS Freq         
Route                                      C   N=           5
#p RXYGJOS(Full)/6-31G nosymm SCF(VeryTight) Freq           
Charge                                     I                0
Multiplicity                               I                1
Number of electrons                        I               10
Number of alpha electrons                  I                5
Number of beta electrons                   I                5
Number of basis functions                  I               15
Number of independent functions            I               15
Number of point charges in /Mol/           I                0
Number of translation vectors              I                0
Atomic numbers                             I   N=           4
           7           1           1           1
Nuclear charges                            R   N=           4
  7.00000000E+00  1.00000000E+00  1.00000000E+00  1.00000000E+00
Current cartesian coordinates              R   N=          12
  0.00000000E+00  0.00000000E+00  0.00000000E+00  1.70075352E+00  0.00000000E+00
  0.00000000E+00  0.00000000E+00  1.88972613E+00  0.00000000E+00  0.00000000E+00
  0.00000000E+00  2.07869875E+00
Number of symbols in /Mol/                 I                0
Force Field                                I                0
Atom Types                                 C   N=           4
                                                
Int Atom Types                             I   N=           4
           0           0           0           0
MM charges                                 R   N=           4
  0.00000000E+00  0.00000000E+00  0.00000000E+00  0.00000000E+00
Integer atomic weights                     I   N=           4
          14           1           1           1
Real atomic weights                        R   N=           4
  1.40030740E+01  1.00782504E+00  1.00782504E+00  1.00782504E+00
Atom fragment info                         I   N=           4
           0           0           0           0
Atom residue num                           I   N=           4
           0           0           0           0
Nuclear spins                              I   N=           4
           2           1           1           1
Nuclear ZEff                               R   N=           4
 -4.55000000E+00 -1.00000000E+00 -1.00000000E+00 -1.00000000E+00
Nuclear ZNuc                               R   N=           4
  7.00000000E+00  1.00000000E+00  1.00000000E+00  1.00000000E+00
Nuclear QMom                               R   N=           4
  2.04400000E+00  0.00000000E+00  0.00000000E+00  0.00000000E+00
Nuclear GFac                               R   N=           4
  4.03761000E-01  2.79284600E+00  2.79284600E+00  2.79284600E+00
MicOpt                                     I   N=           4
          -1          -1          -1          -1
Number of residues                         I                0
Number of secondary structures             I                0
Number of contracted shells                I                9
Number of primitive shells                 I               22
Pure/Cartesian d shells                    I                1
Pure/Cartesian f shells                    I                0
Highest angular momentum                   I                1
Largest degree of contraction              I                6
Shell types                                I   N=           9
           0          -1          -1           0           0           0
           0           0           0
Number of primitives per shell             I   N=           9
           6           3           1           3           1           3
           1           3           1
Shell to atom map                          I   N=           9
           1           1           1           2           2           3
           3           4           4
Primitive exponents                        R   N=          22
  4.17351146E+03  6.27457911E+02  1.42902093E+02  4.02343293E+01  1.28202129E+01
  4.39043701E+00  1.16263619E+01  2.71627981E+00  7.72218397E-01  2.12031498E-01
  1.87311370E+01  2.82539436E+00  6.40121692E-01  1.61277759E-01  1.87311370E+01
  2.82539436E+00  6.40121692E-01  1.61277759E-01  1.87311370E+01  2.82539436E+00
  6.40121692E-01  1.61277759E-01
Contraction coefficients                   R   N=          22
  1.83477216E-03  1.39946270E-02  6.85865518E-02  2.32240873E-01  4.69069948E-01
  3.60455199E-01 -1.14961182E-01 -1.69117479E-01  1.14585195E+00  1.00000000E+00
  3.34946043E-02  2.34726953E-01  8.13757326E-01  1.00000000E+00  3.34946043E-02
  2.34726953E-01  8.13757326E-01  1.00000000E+00  3.34946043E-02  2.34726953E-01
  8.13757326E-01  1.00000000E+00
P(S=P) Contraction coefficients            R   N=          22
  0.00000000E+00  0.00000000E+00  0.00000000E+00  0.00000000E+00  0.00000000E+00
  0.00000000E+00  6.75797439E-02  3.23907296E-01  7.40895140E-01  1.00000000E+00
  0.00000000E+00  0.00000000E+00  0.00000000E+00  0.00000000E+00  0.00000000E+00
  0.00000000E+00  0.00000000E+00  0.00000000E+00  0.00000000E+00  0.00000000E+00
  0.00000000E+00  0.00000000E+00
Coordinates of each shell                  R   N=          27
  0.00000000E+00  0.00000000E+00  0.00000000E+00  0.00000000E+00  0.00000000E+00
  0.00000000E+00  0.00000000E+00  0.00000000E+00  0.00000000E+00  1.70075352E+00
  0.00000000E+00  0.00000000E+00  1.70075352E+00  0.00000000E+00  0.00000000E+00
  0.00000000E+00  1.88972613E+00  0.00000000E+00  0.00000000E+00  1.88972613E+00
  0.00000000E+00  0.00000000E+00  0.00000000E+00  2.07869875E+00  0.00000000E+00
  0.00000000E+00  2.07869875E+00
Num ILSW                                   I              100
ILSW                                       I   N=         100
           0           1           0           0           2           0
           0           0           0           0         402 67108864000
           0           0           0           0           2           0
           0           0           0           0           1           0
           1           1           0           0           0           0
           0           0      100000           0          -1           0
           0           0           0           0           0           0
           0           0           0           1           1           0
           0           0           1           0           0           0
           0           0           4          52           0           0
           0           0          60           0           0           0
           1         402          -5           0           0           0
           0           0           0           0           0           0
           0           0           0           0           0           0
           0           0           0           0           0           0
           0           0           0           0           0           0
           0           0           0           0
Num RLSW                                   I               52
RLSW                                       R   N=          52
  8.00000000E-01  7.20000000E-01  1.00000000E+00  8.10000000E-01  2.00000000E-01
  0.00000000E+00  0.00000000E+00  1.00000000E+00  0.00000000E+00  0.00000000E+00
  0.00000000E+00  0.00000000E+00  1.00000000E+00  0.00000000E+00  0.00000000E+00
  0.00000000E+00  0.00000000E+00  1.00000000E+00  0.00000000E+00  0.00000000E+00
  0.00000000E+00  0.00000000E+00  1.00000000E+00  0.00000000E+00  0.00000000E+00
  0.00000000E+00  0.00000000E+00  1.00000000E+00  0.00000000E+00  0.00000000E+00
  0.00000000E+00  0.00000000E+00  1.00000000E+00  0.00000000E+00  0.00000000E+00
  0.00000000E+00  0.00000000E+00  0.00000000E+00  0.00000000E+00  4.36400000E-01
  8.00000000E-01  7.20000000E-01  1.00000000E+00  8.10000000E-01  2.26900000E-01
  0.00000000E+00  5.06300000E-01  2.75400000E-01  2.00000000E-01  7.73100000E-01
  0.00000000E+00  0.00000000E+00
MxBond                                     I                3
NBond                                      I   N=           4
           3           1           1           1
IBond                                      I   N=          12
           2           3           4           1           0           0
           1           0           0           1           0           0
RBond                                      R   N=          12
  1.00000000E+00  1.00000000E+00  1.00000000E+00  1.00000000E+00  0.00000000E+00
  0.00000000E+00  1.00000000E+00  0.00000000E+00  0.00000000E+00  1.00000000E+00
  0.00000000E+00  0.00000000E+00
Virial Ratio                               R      2.000139398631044E+00
SCF Energy                                 R     -5.621140262918475E+01
MP2 Energy                                 R     -5.627261626660804E+01
Total Energy                               R     -5.627261626660804E+01
Post-SCF wavefunction norm                 R      1.478526900965903E+00
RMS Force                                  R      7.079202337589431E-02
RMS Density                                R      2.050720151346129E-09
NImag                                      I                0
Nuclear derivative order                   I                0
External E-field                           R   N=          35
  0.00000000E+00  0.00000000E+00  0.00000000E+00  0.00000000E+00  0.00000000E+00
  0.00000000E+00  0.00000000E+00  0.00000000E+00  0.00000000E+00  0.00000000E+00
  0.00000000E+00  0.00000000E+00  0.00000000E+00  0.00000000E+00  0.00000000E+00
  0.00000000E+00  0.00000000E+00  0.00000000E+00  0.00000000E+00  0.00000000E+00
  0.00000000E+00  0.00000000E+00  0.00000000E+00  0.00000000E+00  0.00000000E+00
  0.00000000E+00  0.00000000E+00  0.00000000E+00  0.00000000E+00  0.00000000E+00
  0.00000000E+00  0.00000000E+00  0.00000000E+00  0.00000000E+00  0.00000000E+00
IOpCl                                      I                0
IROHF                                      I                0
Alpha Orbital Energies                     R   N=          15
 -1.43177111E+01 -9.23098832E-01 -4.60855660E-01 -4.32632183E-01 -2.81486140E-01
  5.40427126E-02  1.41253294E-01  1.81224728E-01  6.47823020E-01  6.74171769E-01
  7.40077830E-01  8.65764342E-01  9.38455313E-01  1.08244777E+00  1.58434979E+00
Alpha MO coefficients                      R   N=         225
  9.95189142E-01  3.13453069E-02  2.27035905E-03  1.89993469E-03  1.66035602E-03
 -1.98140146E-02 -3.38988269E-03 -2.86838612E-03 -2.46073239E-03 -4.62225753E-04
  5.45464193E-03 -1.40206823E-05  4.04294334E-03  3.71323139E-04  2.97150471E-03
 -1.90743467E-01  3.99957405E-01  1.39810430E-01  1.06950934E-01  8.16269395E-02
  3.86086328E-01  5.08054302E-02  4.97487324E-02  4.59274967E-02  1.90125576E-01
  6.19785835E-03  1.50185504E-01  4.25206596E-03  1.17714621E-01  5.11802893E-03
  7.02232588E-03 -8.96184964E-03  3.90997182E-01 -2.96624253E-01 -9.14542165E-02
 -6.91000880E-02  1.46157671E-01 -1.32541121E-01 -4.73199846E-02  2.96460571E-01
  2.25856460E-01 -2.32130017E-01 -1.80626462E-01 -7.45423432E-02 -6.16260642E-02
 -7.23275718E-03  7.97050012E-03 -1.14909265E-01 -2.71609498E-01  3.81064864E-01
  6.39142154E-02 -4.35975496E-02 -1.21238325E-01  1.94761144E-01 -8.18436700E-02
 -6.56252962E-02 -1.98994463E-01 -1.62827484E-01  2.89680021E-01  2.51372850E-01
 -1.07943800E-01  2.33947377E-01 -2.96474174E-01 -2.88983937E-01 -2.82773910E-01
  4.56436785E-01 -2.24070499E-01 -2.23884073E-01 -2.24395749E-01 -8.26716714E-02
 -7.26064660E-02 -8.35743883E-02 -8.12257337E-02 -8.54279037E-02 -8.94436443E-02
 -9.83704393E-02  1.33574065E-01  8.23375076E-02  1.41125409E-01  2.52829573E-01
  1.56130277E+00  2.42877737E-01  3.18618806E-01  4.74930176E-01 -5.40435175E-03
 -7.39263389E-01 -3.44847140E-02 -7.90437337E-01 -9.28473358E-02 -9.99284575E-01
  1.88680801E-02 -1.65959795E-02 -9.10688635E-02 -2.81391267E-01  3.19986032E-01
 -4.93212625E-01 -2.26325995E-01 -6.01997855E-01  5.98731068E-01  2.05338543E-02
  5.57841652E-01  9.64531366E-02  1.32189185E+00 -1.41105507E-01 -1.21970078E+00
  1.26351412E-02 -6.65667125E-03 -3.32163892E-01  2.27656540E-01  8.70919105E-02
 -4.45678614E-01 -8.28597557E-01  4.96491768E-01  1.67195697E-01  7.38517682E-02
  2.02168884E+00 -7.39354963E-02 -1.11649454E+00 -3.59614773E-02 -3.60130011E-01
 -1.03891305E-02 -6.59991830E-02 -4.02089607E-01  4.88751613E-02 -2.34273396E-02
  5.61372817E-01  1.20230093E+00 -3.69484276E-01 -1.04648330E-01 -7.62937839E-01
 -2.04038893E-01  4.78555683E-01 -1.93532953E-01  3.52902566E-01 -2.95862820E-01
 -1.00895169E-02 -4.88858045E-02 -1.21521477E-01 -3.72878357E-01  1.19441538E-01
  3.92133014E-01  1.84292992E-01  8.93767673E-01 -4.33830579E-01 -4.55079645E-02
 -5.64727272E-02 -6.84488247E-01  1.03057054E-01  7.82945153E-01 -5.63221571E-01
 -3.63679725E-02  1.67219076E-01 -3.99468849E-01 -5.21808696E-01 -7.10590373E-01
  2.96989190E-01  3.37090761E-01  6.49735081E-01  1.02663859E+00  1.55427521E-01
 -1.47599759E-01  4.15484359E-02 -3.14786186E-01 -2.37550838E-01 -2.63161681E-01
 -3.45644464E-02  3.78084697E-01 -3.19358686E-01 -4.30463405E-01  7.12151031E-01
 -3.53278778E-01  5.17036900E-01  6.54881004E-01 -9.89718362E-01  3.27137310E-02
 -4.62183361E-01  1.15772446E-01 -6.22496971E-01 -7.22038423E-01  1.54215365E+00
 -4.02984556E-02  5.18844892E-01 -5.61543799E-01  6.88659207E-01 -1.84824097E-02
 -6.39425862E-01  8.11041437E-01 -8.60827421E-01  5.45342724E-02  2.80312780E-01
 -9.92282702E-01 -8.01636094E-01  1.56874847E+00 -1.58280403E-01  1.48598078E-01
  7.09360964E-02 -1.27741758E+00 -6.05460016E-01 -1.58774822E-02  8.76317580E-02
  1.88051814E+00  6.19181374E-01 -3.03351114E-02 -1.31512345E-01  8.94842608E-01
 -1.51016845E+00  2.46819407E-01 -2.80065664E-01  7.99910160E-02 -2.83490031E-02
 -7.01447424E-02 -1.40536841E+00  1.25637693E-01  4.55384195E-05 -9.13781410E-02
  3.78084512E+00  9.54152741E-01  8.82479928E-01  8.04585420E-01 -9.94948468E-01
 -8.34241237E-01 -9.20593669E-01 -6.08214013E-01 -8.78138021E-01 -4.14938981E-01
Total SCF Density                          R   N=         120
  2.07707598E+00 -1.40937007E-01  4.31647346E-01  2.23417598E-02 -3.55798319E-02
  5.47063965E-01  2.51322398E-02 -4.85564467E-02  3.17292885E-02  5.13422990E-01
  2.64157642E-02 -5.91959892E-02  3.14100082E-02  2.81541039E-02  4.80402205E-01
 -2.87158354E-01  5.23415782E-01 -2.31500168E-01 -1.75022394E-01 -1.33822622E-01
  7.33299271E-01  2.49286800E-02 -6.77285835E-02  2.71367097E-01  7.73352426E-02
  7.50450497E-02 -1.90955160E-01  1.52126165E-01  2.35384111E-02 -6.46962894E-02
  7.08658542E-02  2.84517033E-01  6.65728547E-02 -1.63030073E-01  7.72336753E-02
  1.69746245E-01  2.25438184E-02 -6.44569369E-02  6.41225203E-02  6.17827181E-02
  2.91484679E-01 -1.37847835E-01  7.44297757E-02  7.03797125E-02  1.85279852E-01
 -5.02550422E-02  1.06755305E-01  3.52820696E-01 -4.29677251E-02 -3.88086462E-02
  1.99264530E-02  1.50166862E-01 -2.80384846E-03 -5.36835131E-03  2.75139619E-01
  2.82886135E-02 -3.37667871E-02  2.36510090E-01 -5.50294348E-02 -4.92336741E-02
 -1.01313045E-01  1.04874235E-01 -1.08616930E-02 -1.38099399E-02  1.59013796E-01
  1.21315371E-01 -3.96606678E-02  8.20191696E-02 -4.42415188E-02  3.26236577E-01
 -3.74174260E-02  4.63201038E-02  2.20985990E-03  1.62150163E-01 -4.24116845E-03
 -3.41352280E-02 -6.47404006E-02  2.46047011E-01  2.37790552E-02 -3.37084881E-02
 -5.44581132E-02  2.43478113E-01 -4.44129352E-02 -6.68770833E-02 -1.79689990E-03
  1.24132903E-01 -9.50635645E-03 -6.54012003E-02 -4.83282627E-02  1.63515049E-01
  1.31541507E-01 -3.09619831E-02  6.01675431E-02 -4.12940448E-02 -3.85821840E-02
  3.01940345E-01  6.02275288E-02  3.19376379E-03 -5.18719537E-04  1.69041675E-01
 -3.27289713E-02 -5.78239696E-02 -3.10451913E-02 -5.25251474E-02  2.21251744E-01
  1.87699767E-02 -3.24582376E-02 -5.14813121E-02 -4.71893363E-02  2.54280713E-01
 -3.71671619E-02  6.50540689E-04 -4.07387253E-03  1.44344656E-01 -6.09536490E-02
 -4.77458924E-02 -5.49454721E-02 -4.50004189E-02  1.71311994E-01  1.50042542E-01
Total MP2 Density                          R   N=         120
  2.07653360E+00 -1.45712680E-01  4.30911463E-01  2.12546727E-02 -3.73159038E-02
  5.46552064E-01  2.43129611E-02 -5.18746815E-02  3.25533718E-02  5.14613236E-01
  2.57799100E-02 -6.39217884E-02  3.23040842E-02  2.90471047E-02  4.82737936E-01
 -2.68076665E-01  4.97328237E-01 -2.03905730E-01 -1.48459514E-01 -1.07907428E-01
  6.97035523E-01  2.60546190E-02 -6.71537124E-02  2.82063699E-01  7.80313837E-02
  7.63919734E-02 -1.86320164E-01  1.75819955E-01  2.41483371E-02 -6.43698227E-02
  7.04587599E-02  2.95149682E-01  6.74625429E-02 -1.55057592E-01  8.51038679E-02
  1.93140504E-01  2.26304313E-02 -6.44254273E-02  6.34943347E-02  6.17700275E-02
  3.01744567E-01 -1.26785615E-01  8.17088827E-02  7.69241200E-02  2.08301952E-01
 -4.97186671E-02  1.03758085E-01  3.36804226E-01 -4.42412459E-02 -4.05429318E-02
  2.95727258E-02  1.54753373E-01 -5.17447649E-03 -7.73537162E-03  2.76963951E-01
  2.13140584E-02 -2.47206651E-02  2.04870200E-01 -5.68768439E-02 -5.17856022E-02
 -8.11912940E-02  9.83625580E-02 -1.64423931E-02 -1.93417172E-02  1.49925845E-01
  1.13090743E-01 -3.94329483E-02  7.83234232E-02 -4.42852555E-02  3.06840154E-01
 -3.86676244E-02  5.64956056E-02  7.88214287E-04  1.64879698E-01 -5.87831612E-03
 -3.59877000E-02 -6.43776348E-02  2.45103035E-01  1.82680893E-02 -2.67905850E-02
 -5.47622388E-02  2.14145653E-01 -4.60754851E-02 -5.10045264E-02 -5.55347815E-03
  1.19348072E-01 -1.33136260E-02 -6.51276841E-02 -5.07018152E-02  1.55913062E-01
  1.26899812E-01 -3.09601115E-02  5.58435467E-02 -4.08386906E-02 -3.88328588E-02
  2.78831134E-01  7.06357187E-02  2.57873077E-03 -1.32436204E-03  1.69218581E-01
 -3.46236373E-02 -5.81463845E-02 -3.30392797E-02 -5.32829058E-02  2.18198075E-01
  1.46029387E-02 -2.80318031E-02 -5.12922936E-02 -4.76611551E-02  2.26326488E-01
 -2.41218429E-02 -1.49289141E-03 -6.35544612E-03  1.40825974E-01 -6.16077183E-02
 -5.06192339E-02 -5.59602995E-02 -4.80496310E-02  1.65250582E-01  1.49207748E-01
Grdnt Energy                               R     -5.627261626660804E+01
Grdnt NVar                                 I               12
Grdnt IGetFC                               I                4
Internal Forces                            R   N=          12
 -1.10698856E-01  2.28973588E-02  8.88450457E-02  1.75103026E-01 -4.04023220E-02
 -3.42806967E-02 -3.63577888E-02  4.22729167E-02 -2.72490993E-02 -2.80463811E-02
 -2.47679535E-02 -2.73152497E-02
Internal Force Constants                   R   N=          78
  9.88016618E-01 -4.70206329E-02  4.55759700E-01 -4.24135880E-02 -3.98509626E-02
  1.75295719E-01 -9.10737297E-01  4.75790917E-02  4.06664835E-02  9.48977542E-01
 -1.38799491E-02  4.93740434E-02  1.56763948E-02 -4.79526046E-02 -2.68421388E-02
 -1.21666214E-02  1.65971125E-02  5.00326041E-02 -4.02571316E-02 -8.15607225E-03
 -2.99352835E-02 -2.46119551E-02 -1.41360043E-02  1.41083894E-02 -2.17686553E-02
  6.84912359E-02 -7.34813638E-03  3.92774815E-02  4.64605416E-02 -4.54012353E-01
  3.33975991E-02  1.07085429E-03 -3.14186593E-02 -1.66702239E-05 -4.75180023E-02
  5.04113631E-01  1.58756087E-02 -9.21152117E-03 -2.22627208E-02 -7.70748202E-04
 -8.35484155E-03  1.21048514E-02 -7.51115853E-03 -3.49778071E-02  3.54314523E-02
 -5.26673664E-02  1.35775455E-02 -1.23612849E-02 -1.64715895E-02 -6.65868217E-03
  5.97718894E-02  7.10312890E-03 -1.33935858E-05 -7.59370198E-03  6.20358270E-02
  1.44400404E-02 -5.11213903E-02 -9.22303128E-03 -6.97341446E-04  8.88675479E-03
 -8.42437002E-03 -6.83722924E-03 -1.86826185E-02  5.25441698E-02 -6.90546976E-03
  6.09172539E-02  3.87046007E-02  3.24653713E-02 -2.03065602E-01  3.61396269E-04
  8.34519000E-04 -3.22021720E-02  7.50905489E-04  1.59687826E-03 -2.52735829E-02
 -3.98169025E-02 -3.48967685E-02  2.60541357E-01
Mulliken Charges                           R   N=           4
 -6.91127453E-01  2.44894561E-01  2.33199962E-01  2.13032930E-01
ONIOM Charges                              I   N=          16
           0           0           0           0           0           0
           0           0           0           0           0           0
           0           0           0           0
ONIOM Multiplicities                       I   N=          16
           1           0           0           0           0           0
           0           0           0           0           0           0
           0           0           0           0
Atom Layers                                I   N=           4
           1           1           1           1
Atom Modifiers                             I   N=           4
           0           0           0           0
Force Field                                I                0
Atom Modified Types                        C   N=           4
                                                
Int Atom Modified Types                    I   N=           4
           0           0           0           0
Link Atoms                                 I   N=           4
           0           0           0           0
Atom Modified MM Charges                   R   N=           4
  0.00000000E+00  0.00000000E+00  0.00000000E+00  0.00000000E+00
Link Distances                             R   N=          16
  0.00000000E+00  0.00000000E+00  0.00000000E+00  0.00000000E+00  0.00000000E+00
  0.00000000E+00  0.00000000E+00  0.00000000E+00  0.00000000E+00  0.00000000E+00
  0.00000000E+00  0.00000000E+00  0.00000000E+00  0.00000000E+00  0.00000000E+00
  0.00000000E+00
Cartesian Gradient                         R   N=          12
  1.10698856E-01 -2.28973588E-02 -8.88450457E-02 -1.75103026E-01  4.04023220E-02
  3.42806967E-02  3.63577888E-02 -4.22729167E-02  2.72490993E-02  2.80463811E-02
  2.47679535E-02  2.73152497E-02
Cartesian Force Constants                  R   N=          78
  9.88016618E-01 -4.70206329E-02  4.55759700E-01 -4.24135880E-02 -3.98509626E-02
  1.75295719E-01 -9.10737297E-01  4.75790917E-02  4.06664835E-02  9.48977542E-01
 -1.38799491E-02  4.93740434E-02  1.56763948E-02 -4.79526046E-02 -2.68421388E-02
 -1.21666214E-02  1.65971125E-02  5.00326041E-02 -4.02571316E-02 -8.15607225E-03
 -2.99352835E-02 -2.46119551E-02 -1.41360043E-02  1.41083894E-02 -2.17686553E-02
  6.84912359E-02 -7.34813638E-03  3.92774815E-02  4.64605416E-02 -4.54012353E-01
  3.33975991E-02  1.07085429E-03 -3.14186593E-02 -1.66702239E-05 -4.75180023E-02
  5.04113631E-01  1.58756087E-02 -9.21152117E-03 -2.22627208E-02 -7.70748202E-04
 -8.35484155E-03  1.21048514E-02 -7.51115853E-03 -3.49778071E-02  3.54314523E-02
 -5.26673664E-02  1.35775455E-02 -1.23612849E-02 -1.64715895E-02 -6.65868217E-03
  5.97718894E-02  7.10312890E-03 -1.33935858E-05 -7.59370198E-03  6.20358270E-02
  1.44400404E-02 -5.11213903E-02 -9.22303128E-03 -6.97341446E-04  8.88675479E-03
 -8.42437002E-03 -6.83722924E-03 -1.86826185E-02  5.25441698E-02 -6.90546976E-03
  6.09172539E-02  3.87046007E-02  3.24653713E-02 -2.03065602E-01  3.61396269E-04
  8.34519000E-04 -3.22021720E-02  7.50905489E-04  1.59687826E-03 -2.52735829E-02
 -3.98169025E-02 -3.48967685E-02  2.60541357E-01
Dipole Moment                              R   N=           3
  7.00584425E-01  6.63068160E-01  6.14194903E-01
Dipole Derivatives                         R   N=          36
 -3.28770246E-01  1.12002269E-01  1.16429656E-01  6.30759714E-02 -2.39907736E-01
  6.87732561E-02  2.79439892E-02  3.02833599E-02 -1.59733859E-01 -1.42033477E-01
  1.93934701E-02  1.44222109E-02 -1.16848552E-01  2.34789420E-01  3.96261737E-02
 -8.60260349E-02  3.42501041E-02  2.08402241E-01  2.45718765E-01 -1.59419163E-01
  3.56660108E-02  2.86176556E-02 -2.01960967E-01  2.74625968E-02  2.76691391E-02
 -9.72315835E-02  2.01425605E-01  2.25084958E-01  2.80234244E-02 -1.66517877E-01
  2.51549248E-02  2.07079283E-01 -1.35862027E-01  3.04129066E-02  3.26981195E-02
 -2.50093987E-01
Polarizability                             R   N=           6
  6.66274829E+00 -1.39400218E-01  8.30827272E+00 -1.95153832E-01 -3.35411568E-01
  1.01345448E+01
QEq coupling tensors                       R   N=          24
  2.00220802E-01  2.58071596E-01  6.26725427E-03  2.60636075E-01  2.41571324E-01
 -2.06488056E-01 -8.54644152E-01  5.87306537E-02  4.26569161E-01  5.12458202E-02
  1.26348285E-02  4.28074991E-01  2.36225879E-01  5.39632698E-02 -4.75688160E-01
  9.75104440E-03  4.11985566E-02  2.39462281E-01  1.33054153E-01  7.25832180E-03
  1.34413896E-01  4.33966623E-02  3.81816317E-02 -2.67468049E-01
