NH3 XYG3 Freq                                                           
Freq      RXYG3-Full                                                  6-31G               
Number of atoms                            I                4
Info1-9                                    I   N=           9
          14          12           0           0           0         100
           6           2        -902
Full Title                                 C   N=           2
NH3 XYG3 Freq           
Route                                      C   N=           4
#p RXYG3(Full)/6-31G nosymm SCF(VeryTight) Freq 
Charge                                     I                0
Multiplicity                               I                1
Number of electrons                        I               10
Number of alpha electrons                  I                5
Number of beta electrons                   I                5
Number of basis functions                  I               15
Number of independent functions            I               15
Number of point charges in /Mol/           I                0
Number of translation vectors              I                0
Atomic numbers                             I   N=           4
           7           1           1           1
Nuclear charges                            R   N=           4
  7.00000000E+00  1.00000000E+00  1.00000000E+00  1.00000000E+00
Current cartesian coordinates              R   N=          12
  0.00000000E+00  0.00000000E+00  0.00000000E+00  2.83458920E+00  0.00000000E+00
  3.77945227E-01  1.88972613E-01  2.26767136E+00  0.00000000E+00  0.00000000E+00
  0.00000000E+00  1.88972613E+00
Number of symbols in /Mol/                 I                0
Force Field                                I                0
Atom Types                                 C   N=           4
                                                
Int Atom Types                             I   N=           4
           0           0           0           0
MM charges                                 R   N=           4
  0.00000000E+00  0.00000000E+00  0.00000000E+00  0.00000000E+00
Integer atomic weights                     I   N=           4
          14           1           1           1
Real atomic weights                        R   N=           4
  1.40030740E+01  1.00782504E+00  1.00782504E+00  1.00782504E+00
Atom fragment info                         I   N=           4
           0           0           0           0
Atom residue num                           I   N=           4
           0           0           0           0
Nuclear spins                              I   N=           4
           2           1           1           1
Nuclear ZEff                               R   N=           4
 -4.55000000E+00 -1.00000000E+00 -1.00000000E+00 -1.00000000E+00
Nuclear ZNuc                               R   N=           4
  7.00000000E+00  1.00000000E+00  1.00000000E+00  1.00000000E+00
Nuclear QMom                               R   N=           4
  2.04400000E+00  0.00000000E+00  0.00000000E+00  0.00000000E+00
Nuclear GFac                               R   N=           4
  4.03761000E-01  2.79284600E+00  2.79284600E+00  2.79284600E+00
MicOpt                                     I   N=           4
          -1          -1          -1          -1
Number of residues                         I                0
Number of secondary structures             I                0
Number of contracted shells                I                9
Number of primitive shells                 I               22
Pure/Cartesian d shells                    I                1
Pure/Cartesian f shells                    I                0
Highest angular momentum                   I                1
Largest degree of contraction              I                6
Shell types                                I   N=           9
           0          -1          -1           0           0           0
           0           0           0
Number of primitives per shell             I   N=           9
           6           3           1           3           1           3
           1           3           1
Shell to atom map                          I   N=           9
           1           1           1           2           2           3
           3           4           4
Primitive exponents                        R   N=          22
  4.17351146E+03  6.27457911E+02  1.42902093E+02  4.02343293E+01  1.28202129E+01
  4.39043701E+00  1.16263619E+01  2.71627981E+00  7.72218397E-01  2.12031498E-01
  1.87311370E+01  2.82539436E+00  6.40121692E-01  1.61277759E-01  1.87311370E+01
  2.82539436E+00  6.40121692E-01  1.61277759E-01  1.87311370E+01  2.82539436E+00
  6.40121692E-01  1.61277759E-01
Contraction coefficients                   R   N=          22
  1.83477216E-03  1.39946270E-02  6.85865518E-02  2.32240873E-01  4.69069948E-01
  3.60455199E-01 -1.14961182E-01 -1.69117479E-01  1.14585195E+00  1.00000000E+00
  3.34946043E-02  2.34726953E-01  8.13757326E-01  1.00000000E+00  3.34946043E-02
  2.34726953E-01  8.13757326E-01  1.00000000E+00  3.34946043E-02  2.34726953E-01
  8.13757326E-01  1.00000000E+00
P(S=P) Contraction coefficients            R   N=          22
  0.00000000E+00  0.00000000E+00  0.00000000E+00  0.00000000E+00  0.00000000E+00
  0.00000000E+00  6.75797439E-02  3.23907296E-01  7.40895140E-01  1.00000000E+00
  0.00000000E+00  0.00000000E+00  0.00000000E+00  0.00000000E+00  0.00000000E+00
  0.00000000E+00  0.00000000E+00  0.00000000E+00  0.00000000E+00  0.00000000E+00
  0.00000000E+00  0.00000000E+00
Coordinates of each shell                  R   N=          27
  0.00000000E+00  0.00000000E+00  0.00000000E+00  0.00000000E+00  0.00000000E+00
  0.00000000E+00  0.00000000E+00  0.00000000E+00  0.00000000E+00  2.83458920E+00
  0.00000000E+00  3.77945227E-01  2.83458920E+00  0.00000000E+00  3.77945227E-01
  1.88972613E-01  2.26767136E+00  0.00000000E+00  1.88972613E-01  2.26767136E+00
  0.00000000E+00  0.00000000E+00  0.00000000E+00  1.88972613E+00  0.00000000E+00
  0.00000000E+00  1.88972613E+00
Num ILSW                                   I              100
ILSW                                       I   N=         100
           0           1           0           0           2           0
           0           0           0           0         402 67108864000
           0           0           0           0           2           0
           0           0           0           0           1           0
           1           1           0           0           0           0
           0           0      100000           0          -1           0
           0           0           0           0           0           0
           0           0           0           1           1           0
           0           0           1           0           0           0
           0           0           4          52           0           0
           0           0          59           0           0           0
           1         402          -5           0           0           0
           0           0           0           0           0           0
           0           0           0           0           0           0
           0           0           0           0           0           0
           0           0           0           0           0           0
           0           0           0           0
Num RLSW                                   I               52
RLSW                                       R   N=          52
  8.00000000E-01  7.20000000E-01  1.00000000E+00  8.10000000E-01  2.00000000E-01
  0.00000000E+00  0.00000000E+00  1.00000000E+00  0.00000000E+00  0.00000000E+00
  0.00000000E+00  0.00000000E+00  1.00000000E+00  0.00000000E+00  0.00000000E+00
  0.00000000E+00  0.00000000E+00  1.00000000E+00  0.00000000E+00  0.00000000E+00
  0.00000000E+00  0.00000000E+00  1.00000000E+00  0.00000000E+00  0.00000000E+00
  0.00000000E+00  0.00000000E+00  1.00000000E+00  0.00000000E+00  0.00000000E+00
  0.00000000E+00  0.00000000E+00  1.00000000E+00  0.00000000E+00  0.00000000E+00
  0.00000000E+00  0.00000000E+00  0.00000000E+00  3.21100000E-01  3.21100000E-01
  8.00000000E-01  7.20000000E-01  1.00000000E+00  8.10000000E-01  1.96700000E-01
  2.10700000E-01  6.78900000E-01  6.78900000E-01  2.00000000E-01  8.03300000E-01
  0.00000000E+00  0.00000000E+00
MxBond                                     I                1
NBond                                      I   N=           4
           1           0           0           1
IBond                                      I   N=           4
           4           0           0           1
RBond                                      R   N=           4
  1.00000000E+00  0.00000000E+00  0.00000000E+00  1.00000000E+00
Virial Ratio                               R      2.011631699779075E+00
SCF Energy                                 R     -5.625846901169496E+01
MP2 Energy                                 R     -5.633622808123501E+01
Total Energy                               R     -5.633622808123501E+01
Post-SCF wavefunction norm                 R      1.550564891460315E+00
RMS Force                                  R      5.387200527192273E-02
RMS Density                                R      6.598916194811583E-09
NImag                                      I                1
Nuclear derivative order                   I                0
External E-field                           R   N=          35
  0.00000000E+00  0.00000000E+00  0.00000000E+00  0.00000000E+00  0.00000000E+00
  0.00000000E+00  0.00000000E+00  0.00000000E+00  0.00000000E+00  0.00000000E+00
  0.00000000E+00  0.00000000E+00  0.00000000E+00  0.00000000E+00  0.00000000E+00
  0.00000000E+00  0.00000000E+00  0.00000000E+00  0.00000000E+00  0.00000000E+00
  0.00000000E+00  0.00000000E+00  0.00000000E+00  0.00000000E+00  0.00000000E+00
  0.00000000E+00  0.00000000E+00  0.00000000E+00  0.00000000E+00  0.00000000E+00
  0.00000000E+00  0.00000000E+00  0.00000000E+00  0.00000000E+00  0.00000000E+00
IOpCl                                      I                0
IROHF                                      I                0
Alpha Orbital Energies                     R   N=          15
 -1.43846778E+01 -8.50795948E-01 -4.29741807E-01 -3.57878488E-01 -3.13816146E-01
 -4.07937049E-02  5.09669770E-02  1.31208933E-01  6.51364924E-01  7.08392092E-01
  7.63683705E-01  7.75768361E-01  8.14213631E-01  9.31965484E-01  1.36421790E+00
Alpha MO coefficients                      R   N=         225
  9.95289238E-01  2.99455331E-02  1.15886260E-03  1.56926113E-03  2.14729808E-03
 -1.62410589E-02 -1.56159610E-03 -2.43222935E-03 -3.51794720E-03  8.35736014E-04
  1.18027908E-03  5.56656051E-04  2.77769518E-03 -9.79569229E-05  4.90745213E-03
 -1.95409686E-01  4.15020807E-01  3.76269881E-02  8.06011213E-02  1.47863074E-01
  4.48162874E-01  3.34294530E-02  5.38851626E-02  7.06682851E-02  5.46038143E-02
  1.51538059E-02  1.12259893E-01  1.13828469E-02  1.89225011E-01  1.16405074E-02
  1.98992913E-02 -3.07908559E-02 -5.35917411E-02 -3.10255416E-01  3.71727626E-01
 -1.18602653E-01 -3.16008893E-02 -1.61933721E-01  1.54754447E-01 -2.32628479E-02
 -3.06459894E-02 -2.38311731E-01 -2.24571002E-01  2.60794212E-01  2.19494417E-01
 -2.16333866E-02  3.28031268E-02  3.51862950E-01 -2.43551644E-01 -1.63355287E-01
  1.20914324E-01  2.34797067E-01 -1.44360538E-01 -8.11409395E-02  2.46772907E-01
  3.37810220E-01 -1.30499095E-01 -1.36850888E-01 -9.83805396E-02 -9.22377663E-02
 -1.07379728E-01  2.37008039E-01 -2.54021060E-01 -2.71444129E-01 -2.87751079E-01
  4.58586994E-01 -1.91094779E-01 -1.88936172E-01 -1.88665472E-01 -1.25515944E-01
 -1.68407582E-01 -1.18431792E-01 -1.41568426E-01 -1.03360047E-01 -1.17118053E-01
  5.67993071E-02 -1.02979831E-01 -4.60314932E-01 -4.16909756E-02 -4.48226538E-02
 -5.53352697E-01 -5.30519446E-01 -8.51941884E-02 -1.02476785E-01  2.44515727E-01
  8.24848641E-01  9.13323146E-03  2.23578191E-01 -1.59609880E-02  2.29479649E-01
  6.00140778E-02 -9.09704032E-02  1.21048472E-01 -4.06662325E-01 -6.87454857E-02
 -8.27681542E-01  1.11815437E-01 -6.25089679E-01 -1.71354324E-01 -1.12479971E-01
 -2.95675917E-01  1.87198985E-01  1.20576228E+00  2.28395673E-02  4.81675852E-01
  3.57579645E-02 -4.19129668E-02  8.72740029E-02  1.83870217E-01 -3.80038615E-01
 -7.54879226E-01  9.47809067E-02  2.79954277E-01 -7.76503377E-01 -5.56434273E-02
 -1.63622748E-01 -9.71065000E-02 -5.55256355E-01  1.24723340E-01  1.77787042E+00
 -1.56635404E-02 -1.46192969E-01 -3.19392775E-01 -2.38056817E-01 -4.75417346E-01
  7.25286009E-01  4.59342002E-01  1.99227147E-01  8.57223996E-01  5.70395774E-01
 -8.17249655E-01  5.29464767E-01 -6.34244940E-01 -4.51593957E-01  4.54173922E-02
  2.12977837E-03  7.12599744E-03 -5.19915610E-01 -4.11512754E-01  1.07209725E-02
 -2.36628304E-02  7.11617805E-01  6.09490110E-01 -4.47430568E-01  4.13968845E-01
 -6.99555348E-01 -5.15971546E-01  3.12047122E-01  6.07625683E-01 -8.99397022E-02
 -3.51384715E-02  2.93636588E-01  5.69464316E-01 -6.24061060E-01 -3.60989293E-01
 -6.58898303E-02 -7.79425445E-01  9.26903484E-01  5.40297580E-01 -9.74573176E-02
  5.29844013E-01 -3.18099774E-01 -1.48341396E-01 -3.67703621E-02 -3.30502924E-01
  4.13050407E-03  2.05486660E-01 -3.41815749E-01 -3.83697826E-01 -5.25169748E-02
 -2.91558388E-01  2.78737630E-01  4.38245855E-01 -1.92068344E-01 -8.68418530E-01
  9.46549435E-01  6.80111424E-01 -9.28254872E-01  2.84781646E-01  3.64682439E-02
 -4.84036211E-02  6.59799208E-01 -3.02440143E-01  4.25483405E-01 -5.62576193E-01
 -7.51126415E-01  3.40576197E-01 -6.59818923E-01  8.63154835E-01 -3.65856347E-01
  2.27362043E-01 -5.39312348E-01  1.12427135E+00  1.11611807E-02 -5.63502476E-01
 -5.98328707E-02  7.79571359E-01 -2.14986735E-01 -1.90944519E-01  6.11586405E-01
 -1.12788468E+00  3.34766865E-01  3.52362504E-01 -6.08136479E-01 -4.24713508E-02
 -1.79093986E-01 -2.12819305E-01 -5.28561023E-02 -1.00216737E+00  1.53495042E+00
 -7.39193714E-03 -1.53012801E+00 -2.43284693E-01 -1.69261425E-01 -8.32278815E-02
  2.77377816E+00  5.21921245E-01  6.98159236E-01  9.28425633E-01 -6.05309706E-01
 -4.78199882E-02 -6.66641849E-01 -3.50977502E-01 -6.63345980E-01 -7.73828434E-01
Total SCF Density                          R   N=         120
  2.08236001E+00 -1.56133673E-01  4.62671875E-01  2.47980259E-02 -6.27240141E-02
  3.85246884E-01  2.81084192E-02 -5.85450634E-02  5.83489910E-03  4.71513490E-01
  3.01459656E-02 -4.71462817E-02  2.52152172E-03  2.89691594E-02  5.39070321E-01
 -3.15917518E-01  6.03635239E-01 -1.01490326E-01 -1.62071141E-01 -2.59133827E-01
  8.80205255E-01  1.34494712E-02 -4.55774934E-02  2.68216147E-01  1.43653844E-02
  1.96501831E-02 -8.09762011E-02  1.87530920E-01  1.44762028E-02 -4.44763233E-02
  1.58033398E-02  2.82050126E-01  5.14316197E-02 -1.21408656E-01  1.82633690E-02
  1.71337797E-01  1.55661234E-02 -4.58369399E-02  2.74718208E-02  5.73023220E-02
  2.71023347E-01 -1.65913769E-01  2.89576991E-02  5.22316935E-02  1.42267667E-01
 -4.32379037E-03  3.49932790E-03  2.44032356E-01 -2.88230329E-02 -9.53214328E-03
 -1.00947072E-03  1.68972387E-01 -1.04048508E-02  7.82585569E-03  1.60349110E-01
  1.67585327E-02 -4.31292282E-02  3.27711809E-01 -5.16592697E-02 -3.17447203E-02
 -5.19530646E-02  2.25943678E-01 -2.23437349E-02  1.37319077E-03  2.12083203E-01
  2.87294131E-01 -2.11691203E-02  4.31892350E-02  2.32512077E-03  2.93835072E-01
 -3.31803455E-02  1.69511790E-02  6.54734545E-03  1.71706926E-01  7.96852968E-03
 -1.13289394E-02 -3.02679913E-02  2.00902355E-01  2.84672299E-02 -5.26399215E-02
  5.50552871E-04  2.84708752E-01 -3.73967898E-02 -9.95553960E-02  4.78725576E-03
  1.66950986E-01  7.70911336E-03 -2.03079355E-02 -3.06609201E-02  1.78844814E-01
  1.78678409E-01 -3.73143948E-02  8.55499096E-02 -3.04348007E-02 -2.72880047E-02
  3.41473082E-01 -1.08417194E-02 -1.05267685E-02  3.39200150E-03  1.62429554E-01
 -1.40776171E-02 -4.19045386E-02 -3.16566164E-02 -5.66343739E-02  2.48363530E-01
  4.30979392E-02 -6.51280382E-02 -2.80480086E-02 -2.57954504E-02  2.64184501E-01
 -1.71514324E-01 -1.16625100E-02  1.03019399E-03  1.28706959E-01 -2.50558933E-02
 -3.59594510E-02 -5.01823093E-02 -3.98858182E-02  1.61249593E-01  1.41123655E-01
Total MP2 Density                          R   N=         120
  2.08164683E+00 -1.62269747E-01  4.64619949E-01  2.47048289E-02 -6.99322281E-02
  3.94510180E-01  2.80908046E-02 -6.50473643E-02  7.43126101E-03  4.75657074E-01
  2.96409916E-02 -5.15022524E-02  5.30355607E-03  3.12168639E-02  5.41233199E-01
 -2.94712522E-01  5.70075983E-01 -8.28425033E-02 -1.41815566E-01 -2.35027412E-01
  8.61809089E-01  1.28860965E-02 -4.65897600E-02  2.75244709E-01  1.48330842E-02
  1.99598881E-02 -7.09389489E-02  2.04214626E-01  1.58085642E-02 -4.67737034E-02
  1.75786415E-02  2.89556292E-01  5.16632937E-02 -1.19563850E-01  2.08919682E-02
  1.90263613E-01  1.83687313E-02 -4.87622204E-02  3.05457003E-02  5.89380144E-02
  2.79092811E-01 -1.70254401E-01  3.29722625E-02  5.82683660E-02  1.62077027E-01
 -5.97139596E-03  3.55236242E-03  2.03681099E-01 -2.65812899E-02 -1.04171912E-02
  9.23227116E-03  1.55636958E-01 -9.30311783E-03  8.35382625E-03  1.54190282E-01
  1.50081920E-02 -4.25563525E-02  2.88067047E-01 -4.81989915E-02 -3.11770787E-02
 -4.69275011E-02  2.19896150E-01 -2.10729164E-02  2.91464830E-03  2.10718150E-01
  3.03828215E-01 -2.27537953E-02  4.35237151E-02 -4.63255251E-04  2.66204412E-01
 -3.38144334E-02  2.91391173E-02  5.50735726E-03  1.68945913E-01  7.08697977E-03
 -1.32967002E-02 -3.34227645E-02  1.95530074E-01  2.33900819E-02 -4.50793333E-02
 -1.13748516E-03  2.54578561E-01 -3.79347811E-02 -8.98799767E-02  4.31100539E-03
  1.66475409E-01  7.90776874E-03 -2.24275430E-02 -3.43417984E-02  1.75474259E-01
  1.86633238E-01 -3.85660245E-02  8.76264922E-02 -3.17107702E-02 -2.94616587E-02
  3.21394642E-01  1.86240058E-03 -1.22329841E-02  1.35880366E-03  1.64380954E-01
 -1.62883775E-02 -4.57928243E-02 -3.28139256E-02 -5.92384854E-02  2.47698904E-01
  3.47169001E-02 -5.16049127E-02 -2.77031471E-02 -2.78111437E-02  2.33543403E-01
 -1.55808519E-01 -1.33004406E-02 -7.44678130E-04  1.27813323E-01 -2.74752255E-02
 -4.05884105E-02 -5.21279145E-02 -4.63848413E-02  1.55864294E-01  1.40746482E-01
Grdnt Energy                               R     -5.633622808123501E+01
Grdnt NVar                                 I               12
Grdnt IGetFC                               I                4
Internal Forces                            R   N=          12
  1.12393613E-01  9.19540704E-02  8.27848904E-04 -7.71308837E-02 -6.99474851E-03
 -2.31667032E-02 -1.41071775E-02 -6.43935543E-02 -1.83042587E-02 -2.11555515E-02
 -2.05657676E-02  4.06431130E-02
Internal Force Constants                   R   N=          78
  6.07119663E-03 -1.02822796E-02  1.34250556E-01 -3.20220392E-02 -2.17387551E-02
  5.68994422E-01  4.23556888E-02  1.01301582E-02  2.57068526E-02 -2.12346329E-03
 -6.11697579E-03 -3.86190838E-02  5.39024631E-03 -1.27528920E-02  4.57548088E-02
  4.92668995E-03  6.31459503E-03 -3.47644522E-02 -2.67073364E-02 -4.00711252E-03
  4.14694705E-02 -4.73549710E-02 -5.85125803E-03  9.28729918E-03 -1.28138011E-02
  2.24077680E-02 -4.97934073E-03  5.57436609E-02  9.99853312E-03 -8.57167417E-02
  3.06173276E-02  5.40069249E-04 -9.31397377E-03  3.13594832E-04 -7.80312109E-03
  1.20671727E-01  4.31595707E-03 -1.43505145E-02 -5.15416282E-02 -3.89988500E-04
 -7.76793420E-04  2.32583377E-04 -3.55775286E-03 -3.09897256E-02  6.67023610E-02
 -1.07191440E-03  6.00337943E-03 -2.97211261E-03 -2.74184244E-02 -3.53790020E-03
  2.67599871E-02  4.42511124E-03 -2.73548128E-03 -3.68215712E-04  2.40652275E-02
  6.40072229E-03 -9.91473080E-03 -1.42688188E-02  2.08266453E-03  2.17824872E-03
 -2.62107735E-03 -8.75338887E-03 -2.56410114E-02  4.61170336E-02  2.70002051E-04
  3.33774935E-02  2.27793922E-02  2.97746745E-02 -4.82688341E-01  1.39047226E-03
 -6.06340371E-04 -6.93760170E-03 -7.50205593E-04  5.88032166E-05 -1.53933162E-02
 -2.34196588E-02 -2.92271374E-02  5.05019259E-01
Mulliken Charges                           R   N=           4
 -5.83795757E-01  9.54393594E-02  2.15320837E-01  2.73035561E-01
ONIOM Charges                              I   N=          16
           0           0           0           0           0           0
           0           0           0           0           0           0
           0           0           0           0
ONIOM Multiplicities                       I   N=          16
           1           0           0           0           0           0
           0           0           0           0           0           0
           0           0           0           0
Atom Layers                                I   N=           4
           1           1           1           1
Atom Modifiers                             I   N=           4
           0           0           0           0
Force Field                                I                0
Atom Modified Types                        C   N=           4
                                                
Int Atom Modified Types                    I   N=           4
           0           0           0           0
Link Atoms                                 I   N=           4
           0           0           0           0
Atom Modified MM Charges                   R   N=           4
  0.00000000E+00  0.00000000E+00  0.00000000E+00  0.00000000E+00
Link Distances                             R   N=          16
  0.00000000E+00  0.00000000E+00  0.00000000E+00  0.00000000E+00  0.00000000E+00
  0.00000000E+00  0.00000000E+00  0.00000000E+00  0.00000000E+00  0.00000000E+00
  0.00000000E+00  0.00000000E+00  0.00000000E+00  0.00000000E+00  0.00000000E+00
  0.00000000E+00
Cartesian Gradient                         R   N=          12
 -1.12393613E-01 -9.19540704E-02 -8.27848904E-04  7.71308837E-02  6.99474851E-03
  2.31667032E-02  1.41071775E-02  6.43935543E-02  1.83042587E-02  2.11555515E-02
  2.05657676E-02 -4.06431130E-02
Cartesian Force Constants                  R   N=          78
  6.07119663E-03 -1.02822796E-02  1.34250556E-01 -3.20220392E-02 -2.17387551E-02
  5.68994422E-01  4.23556888E-02  1.01301582E-02  2.57068526E-02 -2.12346329E-03
 -6.11697579E-03 -3.86190838E-02  5.39024631E-03 -1.27528920E-02  4.57548088E-02
  4.92668995E-03  6.31459503E-03 -3.47644522E-02 -2.67073364E-02 -4.00711252E-03
  4.14694705E-02 -4.73549710E-02 -5.85125803E-03  9.28729918E-03 -1.28138011E-02
  2.24077680E-02 -4.97934073E-03  5.57436609E-02  9.99853312E-03 -8.57167417E-02
  3.06173276E-02  5.40069249E-04 -9.31397377E-03  3.13594832E-04 -7.80312109E-03
  1.20671727E-01  4.31595707E-03 -1.43505145E-02 -5.15416282E-02 -3.89988500E-04
 -7.76793420E-04  2.32583377E-04 -3.55775286E-03 -3.09897256E-02  6.67023610E-02
 -1.07191440E-03  6.00337943E-03 -2.97211261E-03 -2.74184244E-02 -3.53790020E-03
  2.67599871E-02  4.42511124E-03 -2.73548128E-03 -3.68215712E-04  2.40652275E-02
  6.40072229E-03 -9.91473080E-03 -1.42688188E-02  2.08266453E-03  2.17824872E-03
 -2.62107735E-03 -8.75338887E-03 -2.56410114E-02  4.61170336E-02  2.70002051E-04
  3.33774935E-02  2.27793922E-02  2.97746745E-02 -4.82688341E-01  1.39047226E-03
 -6.06340371E-04 -6.93760170E-03 -7.50205593E-04  5.88032166E-05 -1.53933162E-02
 -2.34196588E-02 -2.92271374E-02  5.05019259E-01
Dipole Moment                              R   N=           3
  3.57674756E-01  5.89008569E-01  7.35458788E-01
Dipole Derivatives                         R   N=          36
  2.09589858E-02  3.19808732E-02  6.39006658E-02  5.00033642E-02  2.76040786E-02
  6.38249072E-02  1.46712969E-01  1.40795231E-01 -6.38116470E-02 -2.88063250E-01
  2.71256252E-02 -2.35690571E-02 -1.07253716E-01  9.19070247E-02 -2.12174823E-03
 -2.05566901E-01  2.00091477E-02  8.40559379E-02  1.27254251E-01 -6.66770293E-02
 -2.08650364E-04  1.89125085E-02 -2.86099824E-01  2.92990165E-02  1.40718576E-02
 -1.70177539E-01  1.83545517E-01  1.39850013E-01  7.57053091E-03 -4.01229583E-02
  3.83378434E-02  1.66588720E-01 -9.10021755E-02  4.47820744E-02  9.37316108E-03
 -2.03789808E-01
Polarizability                             R   N=           6
  1.91850533E+01 -9.95737801E-01  1.25888218E+01  1.15550532E+00 -6.17536949E-01
  8.63934115E+00
QEq coupling tensors                       R   N=          24
 -5.34770521E-01  6.83014404E-02  4.29475907E-02  5.58029091E-02  2.54057435E-01
  4.91822931E-01 -3.19054859E-02  1.58632677E-02  1.43007342E-02  1.78290013E-02
  3.84399218E-03  1.76047517E-02  7.87510010E-02 -2.65519541E-03 -1.51140814E-01
  3.23209030E-03  3.39521368E-02  7.23898128E-02  2.39086500E-01  6.47872649E-04
  2.39079600E-01  3.33774841E-02  3.61445220E-02 -4.78166099E-01
