NH3 MP2 Frequency                                                       
Freq      RMP2-Full                                                   6-31G               
Number of atoms                            I                4
Info1-9                                    I   N=           9
          11          11           0           0           0         100
           6           2           2
Full Title                                 C   N=           2
NH3 MP2 Frequency       
Route                                      C   N=           4
#p RMP2(Full)/6-31G nosymm SCF(VeryTight) Freq  
Charge                                     I                0
Multiplicity                               I                1
Number of electrons                        I               10
Number of alpha electrons                  I                5
Number of beta electrons                   I                5
Number of basis functions                  I               15
Number of independent functions            I               15
Number of point charges in /Mol/           I                0
Number of translation vectors              I                0
Atomic numbers                             I   N=           4
           7           1           1           1
Nuclear charges                            R   N=           4
  7.00000000E+00  1.00000000E+00  1.00000000E+00  1.00000000E+00
Current cartesian coordinates              R   N=          12
  0.00000000E+00  0.00000000E+00  0.00000000E+00  1.70075351E+00  0.00000000E+00
  0.00000000E+00  0.00000000E+00  1.88972612E+00  0.00000000E+00  0.00000000E+00
  0.00000000E+00  2.07869874E+00
Number of symbols in /Mol/                 I                0
Force Field                                I                0
Atom Types                                 C   N=           4
                                                
Int Atom Types                             I   N=           4
           0           0           0           0
MM charges                                 R   N=           4
  0.00000000E+00  0.00000000E+00  0.00000000E+00  0.00000000E+00
Integer atomic weights                     I   N=           4
          14           1           1           1
Real atomic weights                        R   N=           4
  1.40030740E+01  1.00782504E+00  1.00782504E+00  1.00782504E+00
Atom fragment info                         I   N=           4
           0           0           0           0
Atom residue num                           I   N=           4
           0           0           0           0
Nuclear spins                              I   N=           4
           2           1           1           1
Nuclear ZEff                               R   N=           4
 -4.55000000E+00 -1.00000000E+00 -1.00000000E+00 -1.00000000E+00
Nuclear ZNuc                               R   N=           4
  7.00000000E+00  1.00000000E+00  1.00000000E+00  1.00000000E+00
Nuclear QMom                               R   N=           4
  2.04400000E+00  0.00000000E+00  0.00000000E+00  0.00000000E+00
Nuclear GFac                               R   N=           4
  4.03761000E-01  2.79284600E+00  2.79284600E+00  2.79284600E+00
MicOpt                                     I   N=           4
          -1          -1          -1          -1
Number of residues                         I                0
Number of secondary structures             I                0
Number of contracted shells                I                9
Number of primitive shells                 I               22
Pure/Cartesian d shells                    I                1
Pure/Cartesian f shells                    I                0
Highest angular momentum                   I                1
Largest degree of contraction              I                6
Shell types                                I   N=           9
           0          -1          -1           0           0           0
           0           0           0
Number of primitives per shell             I   N=           9
           6           3           1           3           1           3
           1           3           1
Shell to atom map                          I   N=           9
           1           1           1           2           2           3
           3           4           4
Primitive exponents                        R   N=          22
  4.17351146E+03  6.27457911E+02  1.42902093E+02  4.02343293E+01  1.28202129E+01
  4.39043701E+00  1.16263619E+01  2.71627981E+00  7.72218397E-01  2.12031498E-01
  1.87311370E+01  2.82539436E+00  6.40121692E-01  1.61277759E-01  1.87311370E+01
  2.82539436E+00  6.40121692E-01  1.61277759E-01  1.87311370E+01  2.82539436E+00
  6.40121692E-01  1.61277759E-01
Contraction coefficients                   R   N=          22
  1.83477216E-03  1.39946270E-02  6.85865518E-02  2.32240873E-01  4.69069948E-01
  3.60455199E-01 -1.14961182E-01 -1.69117479E-01  1.14585195E+00  1.00000000E+00
  3.34946043E-02  2.34726953E-01  8.13757326E-01  1.00000000E+00  3.34946043E-02
  2.34726953E-01  8.13757326E-01  1.00000000E+00  3.34946043E-02  2.34726953E-01
  8.13757326E-01  1.00000000E+00
P(S=P) Contraction coefficients            R   N=          22
  0.00000000E+00  0.00000000E+00  0.00000000E+00  0.00000000E+00  0.00000000E+00
  0.00000000E+00  6.75797439E-02  3.23907296E-01  7.40895140E-01  1.00000000E+00
  0.00000000E+00  0.00000000E+00  0.00000000E+00  0.00000000E+00  0.00000000E+00
  0.00000000E+00  0.00000000E+00  0.00000000E+00  0.00000000E+00  0.00000000E+00
  0.00000000E+00  0.00000000E+00
Coordinates of each shell                  R   N=          27
  0.00000000E+00  0.00000000E+00  0.00000000E+00  0.00000000E+00  0.00000000E+00
  0.00000000E+00  0.00000000E+00  0.00000000E+00  0.00000000E+00  1.70075351E+00
  0.00000000E+00  0.00000000E+00  1.70075351E+00  0.00000000E+00  0.00000000E+00
  0.00000000E+00  1.88972612E+00  0.00000000E+00  0.00000000E+00  1.88972612E+00
  0.00000000E+00  0.00000000E+00  0.00000000E+00  2.07869874E+00  0.00000000E+00
  0.00000000E+00  2.07869874E+00
Num ILSW                                   I              100
ILSW                                       I   N=         100
           0           1           0           0           2           0
           0           0           0           0           0          -1
           5           0           0           0           2           0
           0           0           0           0           1           0
           1           1           0           0           0           0
           0           0      100000           0          -1           0
           0           0           0           0           0           0
           0           0           0           1           1           0
           0 -2000000000           1           0           0           0
           0           0           4          52           0           0
           0           0           0           0           0           0
           0           0           0           4           4           1
           0           0           0           0           0           0
           0           0           0           0           0           0
           0           0           0           0           0           0
           0           0           0           0           0           0
           0           0           0           0
Num RLSW                                   I               52
RLSW                                       R   N=          52
  1.00000000E+00  1.00000000E+00  1.00000000E+00  1.00000000E+00  1.00000000E+00
  0.00000000E+00  0.00000000E+00  1.00000000E+00  0.00000000E+00  0.00000000E+00
  0.00000000E+00  0.00000000E+00  1.00000000E+00  0.00000000E+00  0.00000000E+00
  0.00000000E+00  0.00000000E+00  1.00000000E+00  0.00000000E+00  0.00000000E+00
  0.00000000E+00  0.00000000E+00  1.00000000E+00  0.00000000E+00  0.00000000E+00
  0.00000000E+00  0.00000000E+00  1.00000000E+00  0.00000000E+00  0.00000000E+00
  0.00000000E+00  0.00000000E+00  1.00000000E+00  0.00000000E+00  0.00000000E+00
  0.00000000E+00  0.00000000E+00  0.00000000E+00  1.00000000E+00  1.00000000E+00
  0.00000000E+00  1.00000000E+00  0.00000000E+00  0.00000000E+00  0.00000000E+00
  0.00000000E+00  0.00000000E+00  0.00000000E+00  0.00000000E+00  0.00000000E+00
  0.00000000E+00  0.00000000E+00
MxBond                                     I                3
NBond                                      I   N=           4
           3           1           1           1
IBond                                      I   N=          12
           2           3           4           1           0           0
           1           0           0           1           0           0
RBond                                      R   N=          12
  1.00000000E+00  1.00000000E+00  1.00000000E+00  1.00000000E+00  0.00000000E+00
  0.00000000E+00  1.00000000E+00  0.00000000E+00  0.00000000E+00  1.00000000E+00
  0.00000000E+00  0.00000000E+00
Virial Ratio                               R      1.995261666601710E+00
SCF Energy                                 R     -5.610620954286904E+01
MP2 Energy                                 R     -5.622429797110959E+01
Total Energy                               R     -5.622429797110959E+01
Post-SCF wavefunction norm                 R      1.442726342561184E+00
RMS Force                                  R      7.245606374580831E-02
RMS Density                                R      7.282306155502626E-09
NImag                                      I                0
Job Status                                 I                1
Nuclear derivative order                   I                2
External E-field                           R   N=          35
  0.00000000E+00  0.00000000E+00  0.00000000E+00  0.00000000E+00  0.00000000E+00
  0.00000000E+00  0.00000000E+00  0.00000000E+00  0.00000000E+00  0.00000000E+00
  0.00000000E+00  0.00000000E+00  0.00000000E+00  0.00000000E+00  0.00000000E+00
  0.00000000E+00  0.00000000E+00  0.00000000E+00  0.00000000E+00  0.00000000E+00
  0.00000000E+00  0.00000000E+00  0.00000000E+00  0.00000000E+00  0.00000000E+00
  0.00000000E+00  0.00000000E+00  0.00000000E+00  0.00000000E+00  0.00000000E+00
  0.00000000E+00  0.00000000E+00  0.00000000E+00  0.00000000E+00  0.00000000E+00
IOpCl                                      I                0
IROHF                                      I                0
Alpha Orbital Energies                     R   N=          15
 -1.55588448E+01 -1.21408054E+00 -6.31480107E-01 -5.87161768E-01 -4.61939861E-01
  1.95472797E-01  2.95679817E-01  3.29934287E-01  8.56180808E-01  8.88921599E-01
  9.92484347E-01  1.15113639E+00  1.23388323E+00  1.37825570E+00  1.87240103E+00
Alpha MO coefficients                      R   N=         225
  9.96053635E-01  2.33447963E-02  2.02128371E-03  1.76991096E-03  1.60019256E-03
 -1.19190638E-02 -2.33969008E-03 -1.99998273E-03 -1.73813906E-03 -5.38274037E-05
  3.35842689E-03  1.43313978E-04  2.52759220E-03  3.41206925E-04  1.88183646E-03
 -1.93079453E-01  4.01244762E-01  1.20842983E-01  8.69897195E-02  6.16125991E-02
  4.19724030E-01  4.88944041E-02  4.66276929E-02  4.21685270E-02  1.85234353E-01
 -2.90791026E-03  1.44798711E-01 -5.88192933E-04  1.12780473E-01  3.33357098E-03
  1.06102451E-02 -1.36818388E-02  3.96141881E-01 -2.74928430E-01 -8.06052925E-02
 -8.84383854E-02  1.74362870E-01 -1.40900550E-01 -4.75503899E-02  3.03917295E-01
  2.02050732E-01 -2.25120553E-01 -1.57230314E-01 -7.22296217E-02 -5.56788092E-02
 -1.16210782E-02  1.46274852E-02 -1.23620894E-01 -2.83216156E-01  3.51529753E-01
  8.59539170E-02 -5.79680349E-02 -1.49149937E-01  2.06728661E-01 -8.46598573E-02
 -6.00512288E-02 -2.06575908E-01 -1.54623709E-01  2.79197976E-01  2.30455735E-01
 -9.42694765E-02  2.20187896E-01 -2.82841771E-01 -2.90975601E-01 -3.07829274E-01
  3.69697252E-01 -2.33276226E-01 -2.40642138E-01 -2.55799401E-01 -6.98222332E-02
 -3.24680923E-02 -8.20694654E-02 -5.52926611E-02 -1.00416208E-01 -8.44115864E-02
 -9.91624062E-02  7.60299731E-02  6.98587062E-02  1.14169179E-01  1.86428476E-01
  1.73297594E+00  3.00876657E-01  3.64581486E-01  4.85146937E-01 -4.55868635E-04
 -8.55271459E-01 -1.93632002E-02 -8.68237791E-01 -5.19852482E-02 -9.93209859E-01
 -1.38756216E-02 -6.85547485E-04  7.48314835E-02  2.20304320E-01 -2.75657368E-01
  4.41803413E-01  2.50008429E-01  6.34910283E-01 -6.99518636E-01 -1.07670338E-02
 -5.87120489E-01 -5.27362752E-02 -1.35169449E+00  8.81397479E-02  1.39194301E+00
  9.66455658E-03  5.40264128E-03 -2.66030550E-01  1.93091921E-01  7.20376020E-02
 -4.10043790E-01 -8.90844903E-01  5.67778105E-01  1.88694610E-01  2.78589595E-02
  2.10553031E+00 -3.64311759E-02 -1.24553436E+00 -1.88605103E-02 -3.95564607E-01
 -7.92238440E-03 -6.86951338E-02 -3.76820008E-01  1.02109354E-01  1.14145290E-02
  5.05679319E-01  1.17680619E+00 -4.54056810E-01 -1.42744271E-01 -7.80977599E-01
 -1.87612906E-01  5.00495830E-01 -1.64926158E-01  3.07150390E-01 -2.23256675E-01
 -8.23116670E-03 -5.98468666E-02 -1.14862878E-01 -3.30119999E-01  1.67548391E-01
  3.87517635E-01  2.34049945E-01  8.26700965E-01 -5.19954487E-01 -1.09985660E-01
 -5.79099702E-02 -6.77225216E-01  1.18870702E-01  8.08375873E-01 -5.21726742E-01
 -4.17889881E-02  2.64107350E-01 -4.50398604E-01 -5.40667684E-01 -6.57733376E-01
  1.79679406E-01  4.73702817E-01  6.84254326E-01  9.04114293E-01  6.15311420E-02
 -1.62030494E-01 -3.76911999E-02 -2.39338178E-01 -2.45388184E-01 -1.55221631E-01
 -3.63250427E-02  4.47632926E-01 -2.97246334E-01 -3.57863102E-01  7.98828049E-01
 -4.95301902E-01  4.58927690E-01  5.16358109E-01 -9.93782717E-01  2.38138402E-02
 -3.92716003E-01  7.25372695E-02 -4.48576736E-01 -7.22697068E-01  1.44426345E+00
 -4.03497662E-02  5.95628194E-01 -4.94229323E-01  7.70690930E-01 -2.73392812E-02
 -7.96634704E-01  6.48331503E-01 -8.86050848E-01  5.74052508E-02  2.43233263E-01
 -7.57753039E-01 -8.04791143E-01  1.50671193E+00 -1.03659626E-01  8.72766313E-02
  6.14666419E-02 -1.31772127E+00 -6.83293080E-01 -1.21682164E-02  7.40389706E-02
  2.02297892E+00  7.35224572E-01  3.05136637E-02 -5.70727998E-02  8.39265362E-01
 -1.53485500E+00  1.30924759E-01 -2.46919347E-01 -1.84234769E-02 -2.33247587E-02
 -7.59936124E-02 -1.30455746E+00  1.70359363E-01  1.89001828E-02 -8.74782126E-02
  3.61425457E+00  9.01175758E-01  8.55183297E-01  7.93806481E-01 -1.04526159E+00
 -7.36905658E-01 -9.46838901E-01 -5.59975192E-01 -8.94504829E-01 -3.92775529E-01
Orthonormal basis                          R   N=         225
  3.98441339E-02  1.57102238E-01  3.73232351E-02  3.29035473E-02  2.83608478E-02
  2.08130751E-01  5.93710015E-02  5.68327407E-02  5.29618399E-02  1.36065661E-01
  1.94050334E-01  1.25282350E-01  1.86626066E-01  1.13759560E-01  1.77699981E-01
 -5.09700576E-03 -1.13985690E-02 -5.99419452E-02 -1.82038049E-01  2.46984264E-01
 -1.90923136E-03 -7.30267189E-02 -2.34828047E-01  3.35455664E-01 -6.45406323E-02
 -3.74066394E-02 -1.99073061E-01 -1.35717463E-01  2.78725750E-01  2.14576572E-01
  6.88762128E-03  1.47108926E-02  2.60591654E-01 -1.91773335E-01 -7.55886109E-02
  3.72540426E-03  3.18226927E-01 -2.47405098E-01 -1.02519919E-01  2.70878500E-01
  1.70038655E-01 -2.03570327E-01 -1.45750255E-01 -8.31910415E-02 -6.59613813E-02
 -1.44497861E-01 -2.59938815E-01  2.88773275E-01  2.62170097E-01  2.40580789E-01
 -2.39175711E-01  2.94553646E-01  2.73748637E-01  2.56997444E-01  9.47268002E-02
 -2.62845571E-02  8.92564571E-02 -1.80759775E-02  8.45868303E-02 -9.73533039E-03
  9.23124770E-01  1.52723765E-01  1.04365455E-01  1.43649247E-01  1.99411035E-01
 -5.06743648E-02  3.66641707E-02  5.86300898E-02  8.04360764E-02  4.52807216E-03
 -1.11161307E-01 -2.90289336E-02 -1.09940381E-01 -7.34511567E-02 -1.17099573E-01
 -2.03534165E-01  2.16581925E-01 -1.50679063E-01 -3.00742016E-01  8.53480658E-01
  7.46824004E-02 -3.72156698E-02 -1.96473985E-02 -4.70425853E-02  1.30922272E-01
  2.84912974E-02  2.10676079E-01  8.26735493E-02 -4.92787029E-01 -3.00701511E-01
 -2.13203452E-01  3.48181796E-01 -3.79217039E-01  8.77201254E-01  1.29977023E-01
  1.05443883E-01 -3.46756414E-04 -1.85331229E-01 -4.34114737E-02  2.72822281E-01
  8.71593868E-02 -3.76860128E-01 -3.46001114E-01 -2.05931298E-02 -7.65337662E-02
 -2.50426950E-01  5.79684257E-01  8.86392681E-01  1.14738055E-01  4.57753597E-03
  1.59018842E-01 -4.12594753E-01 -9.10708798E-02 -2.08900302E-02 -1.24153023E-01
 -4.45855351E-01  8.01008574E-02 -1.27496051E-01  8.39259403E-02 -7.18927558E-02
 -1.03944041E-01  5.94871046E-01 -3.39640370E-01 -3.56587101E-01 -5.56881577E-01
 -2.38258210E-01  1.09699341E-01  4.27969428E-01  8.22426527E-01  5.41316427E-01
 -3.73168903E-01  1.04721048E-01 -2.36737742E-01 -3.28039878E-01 -3.81347166E-02
  1.07853194E-02 -4.48588708E-02 -3.71687355E-03  2.89328735E-01 -1.92882047E-01
  2.21903173E-02  2.94397839E-01 -8.03109130E-01  3.83823082E-01 -4.50988969E-01
  1.52419006E-01  9.31116832E-01 -3.50866556E-01 -4.63991665E-01  2.21291497E-01
 -9.14603977E-02  5.96997972E-01 -2.84673411E-01 -2.04655050E-01  5.53105448E-02
 -9.05093744E-02  7.53468957E-01  1.58369844E-01 -2.97452797E-01 -5.36638158E-01
 -2.07867763E-02  2.89564637E-01 -2.82179408E-01  8.07818629E-01 -5.17498422E-01
  1.12102906E-01 -4.97509534E-01 -1.68026091E-01 -4.72047215E-02  1.39603576E-02
  9.22367652E-02 -4.55264982E-01 -3.34925162E-01 -2.52666504E-01  1.06508549E+00
 -3.58393013E-01  8.37533791E-01 -3.77848997E-01  7.25978686E-01 -3.99570241E-01
  3.85533208E-03  1.43233529E-01 -1.26066271E-01 -2.67950465E-01  4.18400623E-01
 -2.22976899E-01  2.93888122E-01  7.61344571E-01 -1.33009839E+00  1.81477100E-01
 -5.83843367E-01  3.14788876E-01 -1.34115456E+00 -3.22004810E-01  2.08905434E+00
 -5.98520022E-03 -1.92341612E-01  3.93641346E-01 -3.30946586E-01 -1.03669593E-01
  3.43006514E-01 -1.20947466E+00  1.18687692E+00  3.93189114E-01 -3.94169576E-01
  2.20296700E+00  1.72416007E-01 -1.89899396E+00 -4.45419107E-03 -5.56063259E-01
 -8.26723360E-02 -1.62797046E+00 -1.40639655E-01 -1.06729516E-01 -1.02446345E-01
  4.66708705E+00  1.37555201E+00  9.52716311E-01  7.08708479E-01 -5.50407345E-01
 -1.86372785E+00 -5.58757127E-01 -1.04517391E+00 -5.40104867E-01 -6.24334856E-01
Total SCF Density                          R   N=         120
  2.07707376E+00 -1.50583205E-01  4.20852408E-01  2.19682524E-02 -4.19434926E-02
  5.33634190E-01  2.55426708E-02 -5.90100629E-02  3.78329953E-02  4.96068353E-01
  2.75525171E-02 -7.35527329E-02  3.82562145E-02  3.50701682E-02  4.57255831E-01
 -2.59401019E-01  5.04007939E-01 -1.99058124E-01 -1.42223223E-01 -1.01236920E-01
  6.56391614E-01  2.54871000E-02 -7.00682576E-02  2.96245147E-01  8.12140666E-02
  8.07719193E-02 -1.72188974E-01  1.81153277E-01  2.38571252E-02 -6.91559352E-02
  7.26313503E-02  3.10105639E-01  7.17460744E-02 -1.39458280E-01  8.49974139E-02
  2.04370898E-01  2.26679770E-02 -7.15402211E-02  6.61006601E-02  6.52411874E-02
  3.15683927E-01 -1.09748113E-01  8.29262279E-02  7.87842428E-02  2.24424636E-01
 -5.00559626E-02  1.07105077E-01  3.45985806E-01 -4.62970202E-02 -4.27035801E-02
  3.55601231E-02  1.66488748E-01 -9.51154373E-03 -1.25627321E-02  2.77439852E-01
  1.96180978E-02 -2.37605738E-02  1.92606129E-01 -5.86832080E-02 -5.51506251E-02
 -7.25891850E-02  9.22703865E-02 -2.36830741E-02 -2.76900848E-02  1.36437619E-01
  9.10091211E-02 -4.01324227E-02  8.01814880E-02 -4.58634211E-02  3.13748279E-01
 -4.05732632E-02  6.51724484E-02 -2.10699987E-03  1.78062216E-01 -9.80314279E-03
 -3.67547634E-02 -6.16731540E-02  2.42109907E-01  1.59444753E-02 -2.49246682E-02
 -5.51953744E-02  2.06122276E-01 -4.93854689E-02 -4.02077368E-02 -1.11762123E-02
  1.16978434E-01 -2.07483130E-02 -6.18860464E-02 -4.13554201E-02  1.43580680E-01
  1.03387752E-01 -3.19610077E-02  5.64446088E-02 -4.21931302E-02 -4.03707780E-02
  2.83657556E-01  8.11900852E-02  3.19055109E-04 -4.08557070E-03  1.83188739E-01
 -3.53732172E-02 -5.68534328E-02 -3.36871649E-02 -5.26542707E-02  2.11943189E-01
  1.18385842E-02 -2.61442485E-02 -5.25281744E-02 -5.02121412E-02  2.23385626E-01
 -1.01945285E-02 -6.43515339E-03 -1.21252516E-02  1.44038178E-01 -5.98418134E-02
 -4.47035696E-02 -5.53231561E-02 -4.44187737E-02  1.54434659E-01  1.26699891E-01
Total MP2 Density                          R   N=         120
  2.07654227E+00 -1.49611093E-01  4.37352407E-01  2.09364132E-02 -3.60674376E-02
  5.44955176E-01  2.40272872E-02 -5.04153611E-02  3.12522177E-02  5.15003856E-01
  2.55520711E-02 -6.25404093E-02  3.10306958E-02  2.78317891E-02  4.85138065E-01
 -2.60175265E-01  4.85382071E-01 -2.06694544E-01 -1.51759734E-01 -1.11254444E-01
  6.99933149E-01  2.71769318E-02 -6.74945702E-02  2.73954331E-01  7.83042584E-02
  7.66057827E-02 -1.90167776E-01  1.77999677E-01  2.51665066E-02 -6.40674625E-02
  7.08698580E-02  2.86916466E-01  6.75602327E-02 -1.60190669E-01  8.85646959E-02
  1.93026739E-01  2.35658573E-02 -6.35498115E-02  6.38299404E-02  6.18892311E-02
  2.94165964E-01 -1.32975227E-01  8.48970231E-02  7.98240012E-02  2.06462150E-01
 -4.95217944E-02  1.04340993E-01  3.32970585E-01 -4.42800883E-02 -4.08454960E-02
  2.75215140E-02  1.52309665E-01 -4.51353228E-03 -7.01002787E-03  2.79386573E-01
  1.95206910E-02 -2.31094105E-02  2.11665904E-01 -5.75866197E-02 -5.22207344E-02
 -8.22478086E-02  1.02299486E-01 -1.67212777E-02 -1.91332489E-02  1.55270420E-01
  1.18270293E-01 -3.94253663E-02  7.93171375E-02 -4.41780219E-02  3.04447336E-01
 -3.89554720E-02  5.47106699E-02  9.42950561E-04  1.62061359E-01 -5.51326807E-03
 -3.50815253E-02 -6.53194471E-02  2.46927703E-01  1.69132015E-02 -2.53549313E-02
 -5.58122083E-02  2.20141376E-01 -4.64262726E-02 -5.11775483E-02 -6.28626174E-03
  1.23502672E-01 -1.31306593E-02 -6.63874406E-02 -5.32486161E-02  1.59956468E-01
  1.31897276E-01 -3.11693183E-02  5.72395909E-02 -4.08298262E-02 -3.89553687E-02
  2.78152152E-01  6.94130687E-02  2.42298104E-03 -1.34133964E-03  1.66520998E-01
 -3.37741444E-02 -5.85628836E-02 -3.22284305E-02 -5.34492966E-02  2.19443017E-01
  1.35153173E-02 -2.63976556E-02 -5.22868753E-02 -4.82485689E-02  2.31615371E-01
 -2.39344219E-02 -2.38763503E-03 -6.80009641E-03  1.44509965E-01 -6.24427006E-02
 -5.25453322E-02 -5.62537400E-02 -4.95676748E-02  1.67609725E-01  1.53502447E-01
Grdnt Energy                               R     -5.622429797110959E+01
Grdnt NVar                                 I                0
Grdnt IGetFC                               I                4
Mulliken Charges                           R   N=           4
 -7.75695359E-01  2.70308674E-01  2.62805808E-01  2.42580877E-01
ONIOM Charges                              I   N=          16
           0           0           0           0           0           0
           0           0           0           0           0           0
           0           0           0           0
ONIOM Multiplicities                       I   N=          16
           1           0           0           0           0           0
           0           0           0           0           0           0
           0           0           0           0
Atom Layers                                I   N=           4
           1           1           1           1
Atom Modifiers                             I   N=           4
           0           0           0           0
Force Field                                I                0
Atom Modified Types                        C   N=           4
                                                
Int Atom Modified Types                    I   N=           4
           0           0           0           0
Link Atoms                                 I   N=           4
           0           0           0           0
Atom Modified MM Charges                   R   N=           4
  0.00000000E+00  0.00000000E+00  0.00000000E+00  0.00000000E+00
Link Distances                             R   N=          16
  0.00000000E+00  0.00000000E+00  0.00000000E+00  0.00000000E+00  0.00000000E+00
  0.00000000E+00  0.00000000E+00  0.00000000E+00  0.00000000E+00  0.00000000E+00
  0.00000000E+00  0.00000000E+00  0.00000000E+00  0.00000000E+00  0.00000000E+00
  0.00000000E+00
Cartesian Gradient                         R   N=          12
  1.15182244E-01 -1.98149419E-02 -8.72943510E-02 -1.80391699E-01  4.08756069E-02
  3.47372760E-02  3.67880462E-02 -4.61161800E-02  2.75610658E-02  2.84214081E-02
  2.50555149E-02  2.49960093E-02
Cartesian Force Constants                  R   N=          78
  9.88264738E-01 -5.00040504E-02  4.55170999E-01 -4.51550514E-02 -4.25760800E-02
  1.74864933E-01 -9.16972363E-01  4.86771706E-02  4.19192197E-02  9.56065781E-01
 -1.16548747E-02  5.42257156E-02  1.56657743E-02 -4.86570883E-02 -3.17365993E-02
 -1.01721440E-02  1.64701225E-02  5.44467972E-02 -4.11198890E-02 -8.04744426E-03
 -3.45232989E-02 -2.09750020E-02 -1.21486750E-02  1.40991969E-02 -2.21609404E-02
  6.68962360E-02 -7.24270011E-03  3.58029809E-02  4.74229961E-02 -4.60573336E-01
  3.47036511E-02  6.56542545E-04 -3.16902607E-02 -1.11110800E-04 -4.79886298E-02
  5.11480318E-01  1.56595219E-02 -7.51153550E-03 -1.90582951E-02 -7.44287358E-04
 -8.26091573E-03  1.24877153E-02 -7.43482392E-03 -3.57230808E-02  3.22414540E-02
 -5.03173729E-02  1.34755548E-02 -1.08633651E-02 -1.69324781E-02 -6.58427308E-03
  5.85347330E-02  7.33296160E-03 -9.09087822E-05 -7.48041062E-03  5.99168894E-02
  1.42359290E-02 -4.88233788E-02 -7.79334532E-03 -6.76624844E-04  9.20114441E-03
 -8.31156741E-03 -6.75893118E-03 -1.92167211E-02  5.14955321E-02 -6.80037297E-03
  5.88389554E-02  3.96676735E-02  3.36174931E-02 -2.10253435E-01 -5.50433531E-05
  6.42585703E-04 -3.24112136E-02  5.78327165E-04  1.13054055E-03 -2.56708742E-02
 -4.01909573E-02 -3.53906193E-02  2.68335523E-01
Nonadiabatic coupling                      R   N=          12
  0.00000000E+00  0.00000000E+00  0.00000000E+00  0.00000000E+00  0.00000000E+00
  0.00000000E+00  0.00000000E+00  0.00000000E+00  0.00000000E+00  0.00000000E+00
  0.00000000E+00  0.00000000E+00
Dipole Moment                              R   N=           3
  6.91449185E-01  6.54083194E-01  6.07985858E-01
Dipole Derivatives                         R   N=          36
 -3.15394689E-01  1.09389569E-01  1.13148107E-01  6.20831878E-02 -2.38311587E-01
  6.85116287E-02  2.87723741E-02  3.24072932E-02 -1.73877703E-01 -1.46358382E-01
  1.92295712E-02  1.41055973E-02 -1.16932524E-01  2.31379280E-01  4.05000642E-02
 -8.75324241E-02  3.54916874E-02  2.06472225E-01  2.40886642E-01 -1.57657793E-01
  3.64500576E-02  2.83516068E-02 -1.96205823E-01  2.53687697E-02  2.91475018E-02
 -9.82803138E-02  1.98307404E-01  2.20866429E-01  2.90386535E-02 -1.63703762E-01
  2.64977291E-02  2.03138130E-01 -1.34380463E-01  2.96125483E-02  3.03813332E-02
 -2.30901926E-01
Polarizability                             R   N=           6
  6.68519648E+00 -1.54718594E-01  8.26827308E+00 -2.08236734E-01 -3.37503720E-01
  9.99268260E+00
QEq coupling tensors                       R   N=          24
  1.86974715E-01  2.50873878E-01  5.96862404E-03  2.53410402E-01  2.34536030E-01
 -1.92943339E-01 -8.60067617E-01  5.88360606E-02  4.29289358E-01  5.15571423E-02
  1.27907679E-02  4.30778259E-01  2.38492823E-01  5.38501186E-02 -4.80030102E-01
  9.91250705E-03  4.14175283E-02  2.41537279E-01  1.34683179E-01  7.40293958E-03
  1.35928693E-01  4.32693577E-02  3.81842020E-02 -2.70611871E-01
Number of Normal Modes                     I                6
Vib-LE2Fix                                 I               14
Vib-NDFDPol                                I                0
Vib-NumROA                                 I                0
Vib-NDim                                   I                4
Vib-NDim0                                  I                4
Vib-LFlags                                 I                8
Vib-IFlags                                 I   N=          48
           0           0           1           0           0           0
           0           0           0           0           2           0
           0           0           0           0           0           0
           3           0           0           0           0           0
           0           0           4           0           0           0
           0           0           0           0           5           0
           0           0           0           0           0           0
           6           0           0           0           0           0
Vib-AtMass                                 R   N=           4
  1.40030740E+01  1.00782504E+00  1.00782504E+00  1.00782504E+00
Vib-E2                                     R   N=          84
  1.03876630E+03  1.30359822E+03  1.59837265E+03  2.80465819E+03  3.80143831E+03
  5.18160300E+03  1.15067372E+00  1.05940020E+00  1.05043081E+00  1.03914255E+00
  1.05700426E+00  1.06709195E+00  7.31540036E-01  1.06071270E+00  1.58115240E+00
  4.81598591E+00  8.99959224E+00  1.68803060E+01  2.14567135E+01  2.29034912E+00
  1.60646716E+00  5.11599995E+01  3.38850015E+01  1.57333195E+01  0.00000000E+00
  0.00000000E+00  0.00000000E+00  0.00000000E+00  0.00000000E+00  0.00000000E+00
  0.00000000E+00  0.00000000E+00  0.00000000E+00  0.00000000E+00  0.00000000E+00
  0.00000000E+00  0.00000000E+00  0.00000000E+00  0.00000000E+00  0.00000000E+00
  0.00000000E+00  0.00000000E+00  0.00000000E+00  0.00000000E+00  0.00000000E+00
  0.00000000E+00  0.00000000E+00  0.00000000E+00  0.00000000E+00  0.00000000E+00
  0.00000000E+00  0.00000000E+00  0.00000000E+00  0.00000000E+00  1.00000000E+02
  1.00000000E+02  1.00000000E+02  1.00000000E+02  1.00000000E+02  1.00000000E+02
  0.00000000E+00  0.00000000E+00  0.00000000E+00  0.00000000E+00  0.00000000E+00
  0.00000000E+00  0.00000000E+00  0.00000000E+00  0.00000000E+00  0.00000000E+00
  0.00000000E+00  0.00000000E+00  0.00000000E+00  0.00000000E+00  0.00000000E+00
  0.00000000E+00  0.00000000E+00  0.00000000E+00  0.00000000E+00  0.00000000E+00
  0.00000000E+00  0.00000000E+00  0.00000000E+00  0.00000000E+00