NH3 B2PLYP Freq                                                         
Freq      RB2PLYP-Full                                                6-31G               
Number of atoms                            I                4
Info1-9                                    I   N=           9
          11          11           0           0           0         100
           6           2       -4702
Full Title                                 C   N=           2
NH3 B2PLYP Freq         
Route                                      C   N=           6
#p RB2PLYP(Full)/6-31G nosymm SCF(VeryTight) Freq Int(Grid=9
9590)       
Charge                                     I                0
Multiplicity                               I                1
Number of electrons                        I               10
Number of alpha electrons                  I                5
Number of beta electrons                   I                5
Number of basis functions                  I               15
Number of independent functions            I               15
Number of point charges in /Mol/           I                0
Number of translation vectors              I                0
Atomic numbers                             I   N=           4
           7           1           1           1
Nuclear charges                            R   N=           4
  7.00000000E+00  1.00000000E+00  1.00000000E+00  1.00000000E+00
Current cartesian coordinates              R   N=          12
  0.00000000E+00  0.00000000E+00  0.00000000E+00  2.83458919E+00  0.00000000E+00
  3.77945225E-01  1.88972612E-01  2.26767135E+00  0.00000000E+00  0.00000000E+00
  0.00000000E+00  1.88972612E+00
Number of symbols in /Mol/                 I                0
Force Field                                I                0
Atom Types                                 C   N=           4
                                                
Int Atom Types                             I   N=           4
           0           0           0           0
MM charges                                 R   N=           4
  0.00000000E+00  0.00000000E+00  0.00000000E+00  0.00000000E+00
Integer atomic weights                     I   N=           4
          14           1           1           1
Real atomic weights                        R   N=           4
  1.40030740E+01  1.00782504E+00  1.00782504E+00  1.00782504E+00
Atom fragment info                         I   N=           4
           0           0           0           0
Atom residue num                           I   N=           4
           0           0           0           0
Nuclear spins                              I   N=           4
           2           1           1           1
Nuclear ZEff                               R   N=           4
 -4.55000000E+00 -1.00000000E+00 -1.00000000E+00 -1.00000000E+00
Nuclear ZNuc                               R   N=           4
  7.00000000E+00  1.00000000E+00  1.00000000E+00  1.00000000E+00
Nuclear QMom                               R   N=           4
  2.04400000E+00  0.00000000E+00  0.00000000E+00  0.00000000E+00
Nuclear GFac                               R   N=           4
  4.03761000E-01  2.79284600E+00  2.79284600E+00  2.79284600E+00
MicOpt                                     I   N=           4
          -1          -1          -1          -1
Number of residues                         I                0
Number of secondary structures             I                0
Number of contracted shells                I                9
Number of primitive shells                 I               22
Pure/Cartesian d shells                    I                1
Pure/Cartesian f shells                    I                0
Highest angular momentum                   I                1
Largest degree of contraction              I                6
Shell types                                I   N=           9
           0          -1          -1           0           0           0
           0           0           0
Number of primitives per shell             I   N=           9
           6           3           1           3           1           3
           1           3           1
Shell to atom map                          I   N=           9
           1           1           1           2           2           3
           3           4           4
Primitive exponents                        R   N=          22
  4.17351146E+03  6.27457911E+02  1.42902093E+02  4.02343293E+01  1.28202129E+01
  4.39043701E+00  1.16263619E+01  2.71627981E+00  7.72218397E-01  2.12031498E-01
  1.87311370E+01  2.82539436E+00  6.40121692E-01  1.61277759E-01  1.87311370E+01
  2.82539436E+00  6.40121692E-01  1.61277759E-01  1.87311370E+01  2.82539436E+00
  6.40121692E-01  1.61277759E-01
Contraction coefficients                   R   N=          22
  1.83477216E-03  1.39946270E-02  6.85865518E-02  2.32240873E-01  4.69069948E-01
  3.60455199E-01 -1.14961182E-01 -1.69117479E-01  1.14585195E+00  1.00000000E+00
  3.34946043E-02  2.34726953E-01  8.13757326E-01  1.00000000E+00  3.34946043E-02
  2.34726953E-01  8.13757326E-01  1.00000000E+00  3.34946043E-02  2.34726953E-01
  8.13757326E-01  1.00000000E+00
P(S=P) Contraction coefficients            R   N=          22
  0.00000000E+00  0.00000000E+00  0.00000000E+00  0.00000000E+00  0.00000000E+00
  0.00000000E+00  6.75797439E-02  3.23907296E-01  7.40895140E-01  1.00000000E+00
  0.00000000E+00  0.00000000E+00  0.00000000E+00  0.00000000E+00  0.00000000E+00
  0.00000000E+00  0.00000000E+00  0.00000000E+00  0.00000000E+00  0.00000000E+00
  0.00000000E+00  0.00000000E+00
Coordinates of each shell                  R   N=          27
  0.00000000E+00  0.00000000E+00  0.00000000E+00  0.00000000E+00  0.00000000E+00
  0.00000000E+00  0.00000000E+00  0.00000000E+00  0.00000000E+00  2.83458919E+00
  0.00000000E+00  3.77945225E-01  2.83458919E+00  0.00000000E+00  3.77945225E-01
  1.88972612E-01  2.26767135E+00  0.00000000E+00  1.88972612E-01  2.26767135E+00
  0.00000000E+00  0.00000000E+00  0.00000000E+00  1.88972612E+00  0.00000000E+00
  0.00000000E+00  1.88972612E+00
Num ILSW                                   I              100
ILSW                                       I   N=         100
           0           1           0           0           2           0
           0           0           0           0         419          -1
       99590           0           0           0           2           0
           0           0           0           0           1           0
           1           1           0           0           0           0
           0           0      100000           0          -1           0
           0           0           0           0           0           0
           0           0           0           1           1           0
           0 -2000000000           1           0           0           0
           0           0           4          52           0           0
           0           0          47           0           0           0
           0           0           0           4           4           1
           0           0           0           0           0           0
           0           0           0           0           0           0
           0           0           0           0           0           0
           0           0           0           0           0           0
           0           0           0           0
Num RLSW                                   I               52
RLSW                                       R   N=          52
  4.70000000E-01  4.70000000E-01  7.30000000E-01  7.30000000E-01  5.30000000E-01
  0.00000000E+00  0.00000000E+00  1.00000000E+00  0.00000000E+00  0.00000000E+00
  0.00000000E+00  0.00000000E+00  1.00000000E+00  0.00000000E+00  0.00000000E+00
  0.00000000E+00  0.00000000E+00  1.00000000E+00  0.00000000E+00  0.00000000E+00
  0.00000000E+00  0.00000000E+00  1.00000000E+00  0.00000000E+00  0.00000000E+00
  0.00000000E+00  0.00000000E+00  1.00000000E+00  0.00000000E+00  0.00000000E+00
  0.00000000E+00  0.00000000E+00  1.00000000E+00  0.00000000E+00  0.00000000E+00
  0.00000000E+00  0.00000000E+00  0.00000000E+00  2.70000000E-01  2.70000000E-01
  0.00000000E+00  1.00000000E+00  0.00000000E+00  0.00000000E+00  0.00000000E+00
  0.00000000E+00  0.00000000E+00  0.00000000E+00  0.00000000E+00  0.00000000E+00
  0.00000000E+00  0.00000000E+00
MxBond                                     I                1
NBond                                      I   N=           4
           1           0           0           1
IBond                                      I   N=           4
           4           0           0           1
RBond                                      R   N=           4
  1.00000000E+00  0.00000000E+00  0.00000000E+00  1.00000000E+00
Virial Ratio                               R      2.010495692786250E+00
SCF Energy                                 R     -5.628678312694280E+01
MP2 Energy                                 R     -5.633817628496482E+01
Total Energy                               R     -5.633817628496482E+01
Post-SCF wavefunction norm                 R      1.495503171421419E+00
RMS Force                                  R      5.340760339800443E-02
RMS Density                                R      4.434497397027248E-09
NImag                                      I                1
Job Status                                 I                1
Nuclear derivative order                   I                2
External E-field                           R   N=          35
  0.00000000E+00  0.00000000E+00  0.00000000E+00  0.00000000E+00  0.00000000E+00
  0.00000000E+00  0.00000000E+00  0.00000000E+00  0.00000000E+00  0.00000000E+00
  0.00000000E+00  0.00000000E+00  0.00000000E+00  0.00000000E+00  0.00000000E+00
  0.00000000E+00  0.00000000E+00  0.00000000E+00  0.00000000E+00  0.00000000E+00
  0.00000000E+00  0.00000000E+00  0.00000000E+00  0.00000000E+00  0.00000000E+00
  0.00000000E+00  0.00000000E+00  0.00000000E+00  0.00000000E+00  0.00000000E+00
  0.00000000E+00  0.00000000E+00  0.00000000E+00  0.00000000E+00  0.00000000E+00
IOpCl                                      I                0
IROHF                                      I                0
Alpha Orbital Energies                     R   N=          15
 -1.49103616E+01 -9.66937911E-01 -4.95680146E-01 -4.12676022E-01 -3.77703182E-01
  2.33206704E-02  1.13834473E-01  1.93318151E-01  7.43277432E-01  8.04938645E-01
  8.66752027E-01  8.74761298E-01  9.18214360E-01  1.04683818E+00  1.47516734E+00
Alpha MO coefficients                      R   N=         225
  9.95728106E-01  2.63491248E-02  1.18941518E-03  1.56051534E-03  2.07834706E-03
 -1.33376234E-02 -1.38889259E-03 -2.13105939E-03 -3.05774043E-03  7.45008764E-04
  9.92850783E-04  5.30459964E-04  2.32769229E-03  2.44687722E-05  4.09108028E-03
 -1.96381469E-01  4.17039110E-01  2.87073748E-02  7.04893684E-02  1.35843308E-01
  4.59897039E-01  3.14910924E-02  5.18235747E-02  6.87162437E-02  5.37105885E-02
  1.63263819E-02  1.09826060E-01  1.05450170E-02  1.85632230E-01  7.36685543E-03
  2.41907197E-02 -3.87664243E-02 -4.85122767E-02 -2.84708307E-01  3.88368659E-01
 -1.39024042E-01 -3.03157422E-02 -1.57142271E-01  1.74434997E-01 -2.35119120E-02
 -3.23661620E-02 -2.25576254E-01 -2.09682099E-01  2.68931409E-01  2.16511635E-01
  4.49846430E-02 -8.64054852E-02 -2.59485033E-01  3.16909475E-01  2.20552789E-01
 -2.16476562E-01 -1.82876606E-01  2.04533097E-01  1.27250345E-01 -1.98661573E-01
 -2.84646883E-01  1.64398968E-01  1.70997865E-01  1.12820704E-01  1.01809094E-01
 -9.13167859E-02  2.16671659E-01 -3.35196642E-01 -2.12787118E-01 -2.25055345E-01
  3.68600381E-01 -2.60936904E-01 -1.59866007E-01 -1.65455425E-01 -1.79426615E-01
 -2.49953102E-01 -8.58834136E-02 -9.86501010E-02 -6.21404975E-02 -6.51914284E-02
  6.02460111E-02 -9.60614777E-02 -4.27861158E-01 -4.22826161E-02 -4.24527429E-02
 -6.20373933E-01 -5.63643275E-01 -1.00292431E-01 -1.18935567E-01  2.13878857E-01
  8.59929132E-01  7.06109019E-03  2.56411043E-01 -1.66505928E-02  2.66983827E-01
  5.96945563E-02 -7.57858360E-02  1.29670294E-01 -3.70052601E-01 -6.89459616E-02
 -8.72305487E-01  1.41231893E-01 -6.48074486E-01 -1.95722164E-01 -1.10138403E-01
 -3.41548958E-01  1.57539920E-01  1.23570850E+00  2.14470324E-02  5.37874100E-01
  3.30540701E-02 -2.84934540E-02  8.39963101E-02  1.83000614E-01 -3.46722589E-01
 -7.44881460E-01  1.07284293E-01  3.19738433E-01 -8.03884957E-01 -4.95513478E-02
 -1.75173132E-01 -8.67916616E-02 -6.25372925E-01  9.88372563E-02  1.81777563E+00
 -1.47407743E-02 -1.55533185E-01 -2.46023687E-01 -1.69276654E-01 -4.62231166E-01
  7.13987981E-01  3.46141404E-01  9.05709084E-02  9.13135925E-01  5.46627792E-01
 -7.44162661E-01  5.59654244E-01 -6.08568867E-01 -5.60829558E-01  7.36406587E-02
  6.94121103E-04  1.35061593E-02  5.07581217E-01  4.31936069E-01  5.27404088E-02
 -6.93886384E-02 -6.86331007E-01 -6.29753388E-01  2.99540379E-01 -5.70527491E-01
  8.47755793E-01  5.23456646E-01 -3.07574581E-01 -4.97890080E-01  7.31270390E-02
 -4.12524464E-02  3.82636494E-01  5.61815046E-01 -5.65292312E-01 -4.06420557E-01
 -1.80837876E-01 -7.44331643E-01  8.25553220E-01  6.27262226E-01 -1.66693938E-01
  5.65339199E-01 -3.58951542E-01 -3.33363531E-02 -8.80257014E-02 -3.31846143E-01
  1.48152092E-03  2.56639429E-01 -4.31186475E-01 -4.10134564E-01 -1.03502159E-01
 -3.49551309E-01  3.95327243E-01  4.37547647E-01 -1.44042993E-01 -8.13987073E-01
  8.30122193E-01  6.29127139E-01 -8.21499683E-01  3.07016961E-01  2.21210176E-02
 -4.64989212E-02  6.51035040E-01 -3.48563554E-01  5.25123228E-01 -4.93577756E-01
 -7.79568031E-01  4.10531514E-01 -7.56365107E-01  7.61298467E-01 -2.92541863E-01
  1.01528491E-01 -5.56202057E-01  1.15905839E+00 -3.22929008E-02 -4.38752659E-01
 -5.76468900E-02  7.69789834E-01 -2.01745708E-01 -1.82784732E-01  6.63457425E-01
 -1.11225662E+00  3.09916017E-01  3.31160197E-01 -6.52000120E-01 -2.11739023E-02
 -1.82209230E-01 -1.80881953E-01 -7.18259653E-02 -9.94701891E-01  1.51952472E+00
 -9.23689532E-03 -1.51222247E+00 -2.55706501E-01 -1.71473179E-01 -7.67213366E-02
  2.74200974E+00  5.30474146E-01  6.96249906E-01  9.13671751E-01 -6.18071369E-01
 -4.37804753E-02 -6.72436230E-01 -3.44079751E-01 -6.72174354E-01 -7.48256972E-01
Orthonormal basis                          R   N=         225
  4.35090223E-02  1.64726230E-01  2.49052595E-02  3.67526073E-02  5.34952999E-02
  2.23912670E-01  5.54948602E-02  7.05699490E-02  9.06645585E-02  9.49582899E-02
  1.67481417E-01  1.27416020E-01  1.98626548E-01  1.56431467E-01  2.21235309E-01
 -4.55462703E-03 -1.03601456E-02  9.11958717E-03  2.23240152E-01 -2.07343581E-01
  1.45529903E-03  1.13757738E-02  3.17572878E-01 -2.67510418E-01 -1.57573081E-02
 -1.27244493E-02  2.65030694E-01  2.21697569E-01 -2.24966457E-01 -1.51578953E-01
 -1.54847754E-02 -3.86764130E-02  2.52170342E-01 -9.30789341E-02 -1.14570351E-01
 -1.81029464E-02  3.78565690E-01 -1.26525303E-01 -1.33728897E-01  3.06822332E-01
  2.97686685E-01 -9.42479956E-02 -6.73230713E-02 -1.36255128E-01 -8.08380709E-02
 -1.69011728E-01 -3.12947705E-01  1.57560042E-01  2.36533106E-01  2.98125965E-01
 -2.78267085E-01  1.82187447E-01  2.61854825E-01  3.16573318E-01  6.86776403E-02
  1.52844227E-02  9.55188340E-02  3.96708010E-03  1.05042143E-01 -1.40902178E-02
  4.84989623E-01  2.07603381E-01  5.98569003E-01  4.86787532E-02  6.84697331E-02
  1.56207855E-02  2.21992531E-01  2.09529189E-02  8.29188334E-03 -4.11227390E-01
 -2.53057401E-01  1.17659136E-02 -5.40230065E-02  6.51982300E-02 -5.98550978E-02
  7.40096080E-01  5.69786932E-03 -3.51266342E-01  3.48165187E-01  1.29292430E-01
 -8.92888305E-02 -5.57230630E-02  1.09117051E-01  6.66383949E-02  3.31240418E-01
  1.33964334E-01 -2.05612862E-01 -1.44589816E-01 -8.50275922E-02 -9.23554362E-02
 -3.55341586E-01  2.58883138E-01  1.11587453E-01  7.49958564E-01 -3.12568848E-01
  1.19945756E-01 -6.82395343E-03  5.34303556E-03 -6.09371424E-02 -3.81182503E-02
 -1.73445482E-02 -4.87112708E-01 -2.54932999E-01  2.23851713E-01  9.97727087E-02
 -2.99301121E-01  5.35458151E-01 -3.68354397E-02  1.17424121E-01  8.96174576E-01
  1.86558713E-01  2.19787389E-02 -5.00370273E-02 -2.61977404E-01  5.14606531E-02
 -9.83325292E-03 -1.87357901E-02 -6.09202955E-02 -3.29612811E-01 -3.58987691E-01
 -2.19856398E-02  1.87460453E-01 -8.12924900E-01 -7.67036848E-02 -6.75233204E-02
 -1.37757862E-01  9.66641142E-01  8.34718114E-02 -1.55497358E-01 -5.61257751E-01
  1.44497041E-01  1.19399059E-01 -1.26846623E-01  5.30596751E-01 -2.79163789E-01
 -3.59649633E-02  2.04124094E-01  1.34057753E-01 -6.09880395E-01  1.35638436E-02
 -1.06562457E-01 -1.34809061E-01  9.13413846E-01 -2.51940524E-01  3.46912177E-01
 -1.99926019E-01 -7.34462605E-01  2.59792258E-01  5.38340309E-01 -2.96860550E-01
 -1.42876291E-01  8.38893004E-01 -7.35858203E-02 -2.02296890E-01 -4.62289990E-01
 -2.14608651E-01  1.38070384E-01  2.37243889E-01  8.20020129E-01  4.35160964E-01
 -4.06969338E-01  3.98348209E-01 -4.43090005E-01 -3.15558727E-01 -1.59181206E-01
  5.84484045E-02 -1.39556999E-01  1.51918064E-01  1.53145686E-01  3.31803293E-02
  1.21812385E-01 -1.84913439E-01 -3.56690176E-01 -5.02545768E-01  6.81716881E-01
 -4.49081133E-01  7.59376066E-01 -4.17736080E-01  9.49518875E-01 -4.01653957E-01
 -2.10226422E-04  2.78321167E-01  3.52951014E-01 -1.88043863E-01 -9.05423771E-02
 -2.57964972E-01 -9.34393025E-01  4.37698359E-01  7.81300437E-02 -6.11922105E-01
  1.61395754E+00  4.33402393E-01 -8.76105766E-01  3.24744099E-01 -5.21775624E-01
  8.02969081E-04  3.73150441E-01  1.09727443E-01  3.64580502E-01 -3.27573432E-01
 -5.00368811E-01 -3.20892545E-01 -1.12719146E+00  8.51283861E-01 -1.26466657E-02
  3.12175402E-01 -2.60042571E-01  1.69606014E+00  4.53375221E-01 -1.59853990E+00
 -4.04204129E-02 -1.49864283E+00 -9.26513693E-02 -1.39300925E-01 -2.68727046E-01
  3.39909682E+00  2.91963814E-01  6.15736832E-01  1.39157042E+00 -2.51025831E-01
 -1.68327225E-01 -3.26887535E-01 -6.24894629E-01 -2.86662813E-01 -1.87063991E+00
Total SCF Density                          R   N=         120
  2.08197541E+00 -1.60545312E-01  4.61062494E-01  2.66188583E-02 -7.26451930E-02
  3.65736481E-01  2.90216794E-02 -6.60251801E-02  9.85906139E-03  4.63479958E-01
  3.05201935E-02 -5.23380299E-02  6.53835370E-03  3.35822314E-02  5.37162759E-01
 -3.00713035E-01  5.90806201E-01 -9.49004724E-02 -1.50117097E-01 -2.44492722E-01
  8.27478411E-01  1.46013891E-02 -5.29288718E-02  2.74583953E-01  1.68348922E-02
  2.17851655E-02 -7.57542828E-02  2.06889166E-01  1.53975363E-02 -4.93261288E-02
  1.92435692E-02  2.94450597E-01  5.41907355E-02 -1.14989614E-01  2.14188954E-02
  1.89549691E-01  1.70272043E-02 -5.00601161E-02  3.18946602E-02  6.14190468E-02
  2.84750838E-01 -1.62282257E-01  3.35647705E-02  5.72682625E-02  1.57453977E-01
 -5.85353262E-03  3.23861267E-03  2.28752592E-01 -2.85936750E-02 -1.05359249E-02
  9.65796121E-03  1.71105462E-01 -1.09440956E-02  7.98912970E-03  1.50197046E-01
  1.40392505E-02 -4.29461603E-02  3.19370142E-01 -5.33063864E-02 -3.37529845E-02
 -3.70370851E-02  2.37542410E-01 -2.46612727E-02  1.21548607E-03  2.06070532E-01
  2.89631012E-01 -2.25168699E-02  4.34941002E-02  4.50853101E-04  2.84680611E-01
 -3.41986748E-02  2.92338901E-02  5.28348830E-03  1.76985764E-01  6.65304229E-03
 -1.20940815E-02 -3.24684036E-02  1.94699346E-01  2.37504598E-02 -4.71243843E-02
 -1.65311973E-03  2.71254987E-01 -4.01617183E-02 -7.88201314E-02  2.31090470E-03
  1.68473924E-01  4.44666386E-03 -2.15442216E-02 -3.41100656E-02  1.70085870E-01
  1.66110621E-01 -3.83501039E-02  8.75572466E-02 -3.23268600E-02 -2.90104437E-02
  3.37058900E-01  1.31081165E-03 -1.34492920E-02  7.38604677E-04  1.68609761E-01
 -1.52322729E-02 -4.45108047E-02 -3.27856502E-02 -5.80205688E-02  2.46746762E-01
  3.67947589E-02 -5.62706355E-02 -2.97062230E-02 -2.99616584E-02  2.44443066E-01
 -1.45671522E-01 -1.58901094E-02 -4.80969813E-03  1.24004875E-01 -2.64407076E-02
 -3.91363124E-02 -5.13849368E-02 -4.29422578E-02  1.50263213E-01  1.23126619E-01
Total MP2 Density                          R   N=         120
  2.08198657E+00 -1.59363284E-01  4.63996020E-01  2.46983873E-02 -6.55920347E-02
  3.91779864E-01  2.79876550E-02 -6.08204409E-02  6.22319735E-03  4.73804730E-01
  2.97634308E-02 -4.84364700E-02  3.53316362E-03  2.94229871E-02  5.39274166E-01
 -3.04895479E-01  5.84809017E-01 -9.38389100E-02 -1.53867137E-01 -2.48921310E-01
  8.75388581E-01  1.33634566E-02 -4.54240417E-02  2.70212142E-01  1.45059566E-02
  1.98711473E-02 -7.83661591E-02  1.93619155E-01  1.54233817E-02 -4.52952023E-02
  1.65583365E-02  2.83261013E-01  5.15537380E-02 -1.23020826E-01  1.97763539E-02
  1.79261494E-01  1.73062689E-02 -4.72312681E-02  2.89191150E-02  5.79644105E-02
  2.72651811E-01 -1.70367503E-01  3.11365482E-02  5.56878734E-02  1.51825145E-01
 -5.12519284E-03  3.85080930E-03  2.26009411E-01 -2.77736739E-02 -9.83891756E-03
  3.45173587E-03  1.62235062E-01 -9.83030324E-03  8.03721171E-03  1.57465319E-01
  1.58809935E-02 -4.22268671E-02  3.11567910E-01 -5.00420052E-02 -3.14196317E-02
 -5.02226811E-02  2.23637773E-01 -2.16561772E-02  2.03562621E-03  2.11078200E-01
  2.95694617E-01 -2.18757636E-02  4.34598524E-02  9.00367758E-04  2.79877911E-01
 -3.33471791E-02  2.18814965E-02  6.09011212E-03  1.69300873E-01  7.66779710E-03
 -1.21615528E-02 -3.16772562E-02  1.98703843E-01  2.58944032E-02 -4.86883903E-02
 -1.41495536E-04  2.72424453E-01 -3.78092026E-02 -9.55188420E-02  4.99059079E-03
  1.68035082E-01  8.06336555E-03 -2.12933022E-02 -3.26348536E-02  1.78397368E-01
  1.84729941E-01 -3.78314565E-02  8.64758160E-02 -3.10588075E-02 -2.82204357E-02
  3.30321021E-01 -5.74775285E-03 -1.10545750E-02  2.79392460E-03  1.62430570E-01
 -1.49659945E-02 -4.37448359E-02 -3.19098325E-02 -5.80890373E-02  2.48446443E-01
  3.87794449E-02 -5.82540839E-02 -2.80207096E-02 -2.66051638E-02  2.52042828E-01
 -1.64721186E-01 -1.19913747E-02  8.04366459E-04  1.29971231E-01 -2.62391427E-02
 -3.86606874E-02 -5.12022317E-02 -4.39907401E-02  1.60502064E-01  1.42949963E-01
Grdnt Energy                               R     -5.633817628496482E+01
Grdnt NVar                                 I                0
Grdnt IGetFC                               I                4
Mulliken Charges                           R   N=           4
 -6.22633515E-01  1.01783509E-01  2.32349700E-01  2.88500305E-01
ONIOM Charges                              I   N=          16
           0           0           0           0           0           0
           0           0           0           0           0           0
           0           0           0           0
ONIOM Multiplicities                       I   N=          16
           1           0           0           0           0           0
           0           0           0           0           0           0
           0           0           0           0
Atom Layers                                I   N=           4
           1           1           1           1
Atom Modifiers                             I   N=           4
           0           0           0           0
Force Field                                I                0
Atom Modified Types                        C   N=           4
                                                
Int Atom Modified Types                    I   N=           4
           0           0           0           0
Link Atoms                                 I   N=           4
           0           0           0           0
Atom Modified MM Charges                   R   N=           4
  0.00000000E+00  0.00000000E+00  0.00000000E+00  0.00000000E+00
Link Distances                             R   N=          16
  0.00000000E+00  0.00000000E+00  0.00000000E+00  0.00000000E+00  0.00000000E+00
  0.00000000E+00  0.00000000E+00  0.00000000E+00  0.00000000E+00  0.00000000E+00
  0.00000000E+00  0.00000000E+00  0.00000000E+00  0.00000000E+00  0.00000000E+00
  0.00000000E+00
Cartesian Gradient                         R   N=          12
 -1.12548338E-01 -8.82294088E-02  4.61507293E-03  7.77490602E-02  7.17270185E-03
  2.30059995E-02  1.41041445E-02  6.16609916E-02  1.73585231E-02  2.06951329E-02
  1.93957153E-02 -4.49795955E-02
Cartesian Force Constants                  R   N=          78
  1.40330416E-02 -5.34851976E-03  1.42797447E-01 -2.65288419E-02 -1.77877884E-02
  5.75194131E-01  3.37751411E-02  8.14080465E-03  2.30627155E-02  3.90731398E-03
 -7.47858488E-03 -4.01536152E-02  5.03002920E-03 -1.19843182E-02  4.62169096E-02
  2.54286595E-03  5.88233294E-03 -3.66821466E-02 -2.49187593E-02 -3.78010952E-03
  4.21215214E-02 -4.76892425E-02 -8.39861726E-03  8.66160214E-03 -1.16666019E-02
  2.27969743E-02 -4.68729042E-03  5.51889083E-02  6.79975977E-03 -9.40490249E-02
  2.84884562E-02  1.80990950E-03 -8.25066367E-03  4.41891067E-04 -5.97568941E-03
  1.26674724E-01  3.77653025E-03 -1.58913118E-02 -5.11786437E-02 -3.02713387E-04
 -6.18593058E-04  4.11936529E-04 -3.21883292E-03 -2.93430122E-02  6.53003280E-02
 -1.18940131E-04  5.60633238E-03 -5.19547568E-03 -2.60158532E-02 -3.33407118E-03
  2.70631838E-02  4.16693604E-03 -2.63397986E-03 -2.54983942E-04  2.19678572E-02
  6.02734488E-03 -8.59480721E-03 -1.57306970E-02  2.03360407E-03  2.18736929E-03
 -2.54411448E-03 -8.42266761E-03 -2.43750350E-02  4.58529170E-02  3.61718662E-04
  3.07824729E-02  2.02094457E-02  2.77967673E-02 -4.87333340E-01  2.15875721E-03
 -6.31326623E-04 -5.85131140E-03 -7.55478795E-04  4.12664917E-04 -1.45336208E-02
 -2.16127242E-02 -2.75781056E-02  5.07718272E-01
Nonadiabatic coupling                      R   N=          12
  0.00000000E+00  0.00000000E+00  0.00000000E+00  0.00000000E+00  0.00000000E+00
  0.00000000E+00  0.00000000E+00  0.00000000E+00  0.00000000E+00  0.00000000E+00
  0.00000000E+00  0.00000000E+00
Dipole Moment                              R   N=           3
  3.50123843E-01  5.74777592E-01  7.21635398E-01
Dipole Derivatives                         R   N=          36
  2.49328099E-03  2.09687787E-02  5.09062968E-02  4.77565553E-02  2.57791405E-02
  6.13452679E-02  1.43191905E-01  1.39048967E-01 -5.04650692E-02 -2.70064724E-01
  3.37994512E-02 -1.50365026E-02 -1.02123580E-01  9.29685910E-02 -1.93732396E-03
 -1.97969774E-01  2.02318519E-02  8.56389060E-02  1.27372374E-01 -6.17104403E-02
  1.19732050E-04  1.87277749E-02 -2.82278797E-01  3.04947915E-02  1.26786621E-02
 -1.66456905E-01  1.78224064E-01  1.40199068E-01  6.94221043E-03 -3.59895263E-02
  3.56392493E-02  1.63531065E-01 -8.99027354E-02  4.20992070E-02  7.17608564E-03
 -2.13397901E-01
Polarizability                             R   N=           6
  1.88877649E+01 -9.75866403E-01  1.24981901E+01  1.10833618E+00 -6.16288760E-01
  8.67303533E+00
QEq coupling tensors                       R   N=          24
 -5.38950499E-01  6.04816239E-02  4.46397855E-02  4.45649666E-02  2.42830573E-01
  4.94310714E-01 -2.93157058E-02  1.58225226E-02  1.29442376E-02  1.83677926E-02
  3.81940151E-03  1.63714682E-02  7.64119414E-02 -2.06052490E-03 -1.46241681E-01
  3.19451607E-03  3.38240673E-02  6.98297397E-02  2.36726108E-01  5.42938426E-04
  2.36252582E-01  3.32258504E-02  3.56223867E-02 -4.72978690E-01
Number of Normal Modes                     I                6
Vib-LE2Fix                                 I               14
Vib-NDFDPol                                I                0
Vib-NumROA                                 I                0
Vib-NDim                                   I                4
Vib-NDim0                                  I                4
Vib-LFlags                                 I                8
Vib-IFlags                                 I   N=          48
           0           0           1           0           0           0
           0           0           0           0           2           0
           0           0           0           0           0           0
           3           0           0           0           0           0
           0           0           4           0           0           0
           0           0           0           0           5           0
           0           0           0           0           0           0
           6           0           0           0           0           0
Vib-AtMass                                 R   N=           4
  1.40030740E+01  1.00782504E+00  1.00782504E+00  1.00782504E+00
Vib-E2                                     R   N=          84
 -7.05842099E+02  1.33313195E+03  1.34647104E+03  1.49821334E+03  2.01441505E+03
  3.77785181E+03  1.12554204E+00  1.07610828E+00  1.08057593E+00  1.02902189E+00
  1.02615239E+00  1.06710984E+00  3.30390110E-01  1.12681455E+00  1.15424904E+00
  1.36088721E+00  2.45335263E+00  8.97323752E+00  5.99333086E+01  7.27624043E+00
  2.56293929E+01  9.39322749E+00  6.04315934E+01  4.17423539E+01  0.00000000E+00
  0.00000000E+00  0.00000000E+00  0.00000000E+00  0.00000000E+00  0.00000000E+00
  0.00000000E+00  0.00000000E+00  0.00000000E+00  0.00000000E+00  0.00000000E+00
  0.00000000E+00  0.00000000E+00  0.00000000E+00  0.00000000E+00  0.00000000E+00
  0.00000000E+00  0.00000000E+00  0.00000000E+00  0.00000000E+00  0.00000000E+00
  0.00000000E+00  0.00000000E+00  0.00000000E+00  0.00000000E+00  0.00000000E+00
  0.00000000E+00  0.00000000E+00  0.00000000E+00  0.00000000E+00  1.00000000E+02
  1.00000000E+02  1.00000000E+02  1.00000000E+02  1.00000000E+02  1.00000000E+02
  0.00000000E+00  0.00000000E+00  0.00000000E+00  0.00000000E+00  0.00000000E+00
  0.00000000E+00  0.00000000E+00  0.00000000E+00  0.00000000E+00  0.00000000E+00
  0.00000000E+00  0.00000000E+00  0.00000000E+00  0.00000000E+00  0.00000000E+00
  0.00000000E+00  0.00000000E+00  0.00000000E+00  0.00000000E+00  0.00000000E+00
  0.00000000E+00  0.00000000E+00  0.00000000E+00  0.00000000E+00
Vib-Modes                                  R   N=          72
 -9.23627411E-02 -5.92776353E-03 -2.21912272E-02  8.92552109E-01  8.49669084E-02
  3.07913915E-01  1.06777926E-01  6.83148312E-03  6.29784372E-03  2.83990235E-01