NH3 B3LYP Frequency                                                     
Freq      RB3LYP                                                      6-31G               
Number of atoms                            I                4
Info1-9                                    I   N=           9
          11          11           0           0           0         100
           6          18        -502
Full Title                                 C   N=           2
NH3 B3LYP Frequency     
Route                                      C   N=           5
#p RB3LYP/6-31G nosymm SCF(VeryTight) Freq Int(Grid=99590)  
Charge                                     I                0
Multiplicity                               I                1
Number of electrons                        I               10
Number of alpha electrons                  I                5
Number of beta electrons                   I                5
Number of basis functions                  I               15
Number of independent functions            I               15
Number of point charges in /Mol/           I                0
Number of translation vectors              I                0
Atomic numbers                             I   N=           4
           7           1           1           1
Nuclear charges                            R   N=           4
  7.00000000E+00  1.00000000E+00  1.00000000E+00  1.00000000E+00
Current cartesian coordinates              R   N=          12
  0.00000000E+00  0.00000000E+00  0.00000000E+00  2.83458919E+00  0.00000000E+00
  3.77945225E-01  1.88972612E-01  2.26767135E+00  0.00000000E+00  0.00000000E+00
  0.00000000E+00  1.88972612E+00
Number of symbols in /Mol/                 I                0
Force Field                                I                0
Atom Types                                 C   N=           4
                                                
Int Atom Types                             I   N=           4
           0           0           0           0
MM charges                                 R   N=           4
  0.00000000E+00  0.00000000E+00  0.00000000E+00  0.00000000E+00
Integer atomic weights                     I   N=           4
          14           1           1           1
Real atomic weights                        R   N=           4
  1.40030740E+01  1.00782504E+00  1.00782504E+00  1.00782504E+00
Atom fragment info                         I   N=           4
           0           0           0           0
Atom residue num                           I   N=           4
           0           0           0           0
Nuclear spins                              I   N=           4
           2           1           1           1
Nuclear ZEff                               R   N=           4
 -4.55000000E+00 -1.00000000E+00 -1.00000000E+00 -1.00000000E+00
Nuclear ZNuc                               R   N=           4
  7.00000000E+00  1.00000000E+00  1.00000000E+00  1.00000000E+00
Nuclear QMom                               R   N=           4
  2.04400000E+00  0.00000000E+00  0.00000000E+00  0.00000000E+00
Nuclear GFac                               R   N=           4
  4.03761000E-01  2.79284600E+00  2.79284600E+00  2.79284600E+00
MicOpt                                     I   N=           4
          -1          -1          -1          -1
Number of residues                         I                0
Number of secondary structures             I                0
Number of contracted shells                I                9
Number of primitive shells                 I               22
Pure/Cartesian d shells                    I                1
Pure/Cartesian f shells                    I                0
Highest angular momentum                   I                1
Largest degree of contraction              I                6
Shell types                                I   N=           9
           0          -1          -1           0           0           0
           0           0           0
Number of primitives per shell             I   N=           9
           6           3           1           3           1           3
           1           3           1
Shell to atom map                          I   N=           9
           1           1           1           2           2           3
           3           4           4
Primitive exponents                        R   N=          22
  4.17351146E+03  6.27457911E+02  1.42902093E+02  4.02343293E+01  1.28202129E+01
  4.39043701E+00  1.16263619E+01  2.71627981E+00  7.72218397E-01  2.12031498E-01
  1.87311370E+01  2.82539436E+00  6.40121692E-01  1.61277759E-01  1.87311370E+01
  2.82539436E+00  6.40121692E-01  1.61277759E-01  1.87311370E+01  2.82539436E+00
  6.40121692E-01  1.61277759E-01
Contraction coefficients                   R   N=          22
  1.83477216E-03  1.39946270E-02  6.85865518E-02  2.32240873E-01  4.69069948E-01
  3.60455199E-01 -1.14961182E-01 -1.69117479E-01  1.14585195E+00  1.00000000E+00
  3.34946043E-02  2.34726953E-01  8.13757326E-01  1.00000000E+00  3.34946043E-02
  2.34726953E-01  8.13757326E-01  1.00000000E+00  3.34946043E-02  2.34726953E-01
  8.13757326E-01  1.00000000E+00
P(S=P) Contraction coefficients            R   N=          22
  0.00000000E+00  0.00000000E+00  0.00000000E+00  0.00000000E+00  0.00000000E+00
  0.00000000E+00  6.75797439E-02  3.23907296E-01  7.40895140E-01  1.00000000E+00
  0.00000000E+00  0.00000000E+00  0.00000000E+00  0.00000000E+00  0.00000000E+00
  0.00000000E+00  0.00000000E+00  0.00000000E+00  0.00000000E+00  0.00000000E+00
  0.00000000E+00  0.00000000E+00
Coordinates of each shell                  R   N=          27
  0.00000000E+00  0.00000000E+00  0.00000000E+00  0.00000000E+00  0.00000000E+00
  0.00000000E+00  0.00000000E+00  0.00000000E+00  0.00000000E+00  2.83458919E+00
  0.00000000E+00  3.77945225E-01  2.83458919E+00  0.00000000E+00  3.77945225E-01
  1.88972612E-01  2.26767135E+00  0.00000000E+00  1.88972612E-01  2.26767135E+00
  0.00000000E+00  0.00000000E+00  0.00000000E+00  1.88972612E+00  0.00000000E+00
  0.00000000E+00  1.88972612E+00
Num ILSW                                   I              100
ILSW                                       I   N=         100
           0           1           0           0           2           0
           0           0           0           0         402          -1
       99590           0           0           0           2           0
           0           0           0           0           1           0
           1           1           0           0           0           0
           0           0      100000           0          -1           0
           0           0           0           0           0           0
           0           0           0           1           0           0
           0 -2000000000           1           0           0           0
           0           0           4          52           0           0
           0           0           5           0           0           0
           0           0           0           4           0           1
           0           0           0           0           0           0
           0           0           0           0           0           0
           0           0           0           0           0           0
           0           0           0           0           0           0
           0           0           0           0
Num RLSW                                   I               52
RLSW                                       R   N=          52
  8.00000000E-01  7.20000000E-01  1.00000000E+00  8.10000000E-01  2.00000000E-01
  0.00000000E+00  0.00000000E+00  1.00000000E+00  0.00000000E+00  0.00000000E+00
  0.00000000E+00  0.00000000E+00  1.00000000E+00  0.00000000E+00  0.00000000E+00
  0.00000000E+00  0.00000000E+00  1.00000000E+00  0.00000000E+00  0.00000000E+00
  0.00000000E+00  0.00000000E+00  1.00000000E+00  0.00000000E+00  0.00000000E+00
  0.00000000E+00  0.00000000E+00  1.00000000E+00  0.00000000E+00  0.00000000E+00
  0.00000000E+00  0.00000000E+00  1.00000000E+00  0.00000000E+00  0.00000000E+00
  0.00000000E+00  0.00000000E+00  0.00000000E+00  1.00000000E+00  1.00000000E+00
  0.00000000E+00  1.00000000E+00  0.00000000E+00  0.00000000E+00  0.00000000E+00
  0.00000000E+00  0.00000000E+00  0.00000000E+00  0.00000000E+00  0.00000000E+00
  0.00000000E+00  0.00000000E+00
MxBond                                     I                1
NBond                                      I   N=           4
           1           0           0           1
IBond                                      I   N=           4
           4           0           0           1
RBond                                      R   N=           4
  1.00000000E+00  0.00000000E+00  0.00000000E+00  1.00000000E+00
Virial Ratio                               R      2.011631748904938E+00
SCF Energy                                 R     -5.642836166582686E+01
Total Energy                               R     -5.642836166582686E+01
RMS Force                                  R      5.386623473209076E-02
RMS Density                                R      5.156525478344227E-09
NImag                                      I                1
Job Status                                 I                1
Nuclear derivative order                   I                2
External E-field                           R   N=          35
  0.00000000E+00  0.00000000E+00  0.00000000E+00  0.00000000E+00  0.00000000E+00
  0.00000000E+00  0.00000000E+00  0.00000000E+00  0.00000000E+00  0.00000000E+00
  0.00000000E+00  0.00000000E+00  0.00000000E+00  0.00000000E+00  0.00000000E+00
  0.00000000E+00  0.00000000E+00  0.00000000E+00  0.00000000E+00  0.00000000E+00
  0.00000000E+00  0.00000000E+00  0.00000000E+00  0.00000000E+00  0.00000000E+00
  0.00000000E+00  0.00000000E+00  0.00000000E+00  0.00000000E+00  0.00000000E+00
  0.00000000E+00  0.00000000E+00  0.00000000E+00  0.00000000E+00  0.00000000E+00
IOpCl                                      I                0
IROHF                                      I                0
Alpha Orbital Energies                     R   N=          15
 -1.43846780E+01 -8.50796192E-01 -4.29741790E-01 -3.57878559E-01 -3.13816303E-01
 -4.07939689E-02  5.09667895E-02  1.31209044E-01  6.51364573E-01  7.08391811E-01
  7.63682964E-01  7.75768234E-01  8.14213212E-01  9.31965719E-01  1.36421678E+00
Alpha MO coefficients                      R   N=         225
  9.95289240E-01  2.99455155E-02  1.15886282E-03  1.56926668E-03  2.14728161E-03
 -1.62410442E-02 -1.56159585E-03 -2.43223218E-03 -3.51793529E-03  8.35735192E-04
  1.18027884E-03  5.56655250E-04  2.77769645E-03 -9.79546834E-05  4.90744116E-03
 -1.95409667E-01  4.15020496E-01  3.76270629E-02  8.06011968E-02  1.47863046E-01
  4.48163430E-01  3.34296338E-02  5.38855001E-02  7.06686523E-02  5.46037419E-02
  1.51538181E-02  1.12259802E-01  1.13827513E-02  1.89224764E-01  1.16402742E-02
  1.98991844E-02 -3.07905218E-02 -5.35917334E-02 -3.10255645E-01  3.71727236E-01
 -1.18602395E-01 -3.16008518E-02 -1.61934055E-01  1.54754371E-01 -2.32628035E-02
 -3.06457765E-02 -2.38311744E-01 -2.24571212E-01  2.60794152E-01  2.19494332E-01
 -2.16332251E-02  3.28028842E-02  3.51863249E-01 -2.43551020E-01 -1.63355130E-01
  1.20913333E-01  2.34797511E-01 -1.44360657E-01 -8.11406996E-02  2.46773017E-01
  3.37810456E-01 -1.30498618E-01 -1.36850024E-01 -9.83805513E-02 -9.22377456E-02
 -1.07379778E-01  2.37008460E-01 -2.54020462E-01 -2.71444302E-01 -2.87751370E-01
  4.58586162E-01 -1.91094711E-01 -1.88936524E-01 -1.88666480E-01 -1.25515367E-01
 -1.68406901E-01 -1.18431629E-01 -1.41568172E-01 -1.03360048E-01 -1.17117446E-01
  5.67993072E-02 -1.02979703E-01 -4.60314506E-01 -4.16907723E-02 -4.48224143E-02
 -5.53352747E-01 -5.30520025E-01 -8.51941867E-02 -1.02476569E-01  2.44515673E-01
  8.24849254E-01  9.13329465E-03  2.23578255E-01 -1.59608434E-02  2.29478931E-01
  6.00141205E-02 -9.09702227E-02  1.21048114E-01 -4.06661769E-01 -6.87450719E-02
 -8.27682402E-01  1.11815541E-01 -6.25090357E-01 -1.71354709E-01 -1.12479935E-01
 -2.95675857E-01  1.87199023E-01  1.20576308E+00  2.28399669E-02  4.81675810E-01
  3.57580222E-02 -4.19133505E-02  8.72740767E-02  1.83870239E-01 -3.80038475E-01
 -7.54879273E-01  9.47807192E-02  2.79954138E-01 -7.76503652E-01 -5.56431030E-02
 -1.63622679E-01 -9.71063642E-02 -5.55256163E-01  1.24723464E-01  1.77787056E+00
 -1.56635523E-02 -1.46192832E-01 -3.19393870E-01 -2.38057723E-01 -4.75417505E-01
  7.25285646E-01  4.59343046E-01  1.99228103E-01  8.57223650E-01  5.70394973E-01
 -8.17249247E-01  5.29464536E-01 -6.34244991E-01 -4.51593830E-01  4.54177476E-02
  2.12984867E-03  7.12522800E-03 -5.19914855E-01 -4.11510547E-01  1.07227873E-02
 -2.36630722E-02  7.11617209E-01  6.09487387E-01 -4.47432493E-01  4.13972173E-01
 -6.99558874E-01 -5.15973536E-01  3.12050463E-01  6.07624869E-01 -8.99381345E-02
 -3.51382139E-02  2.93633041E-01  5.69464234E-01 -6.24064861E-01 -3.60986850E-01
 -6.58857600E-02 -7.79424831E-01  9.26908607E-01  5.40292767E-01 -9.74574503E-02
  5.29843768E-01 -3.18096959E-01 -1.48347988E-01 -3.67693263E-02 -3.30500368E-01
  4.13034893E-03  2.05489848E-01 -3.41820367E-01 -3.83694938E-01 -5.25195758E-02
 -2.91563276E-01  2.78743391E-01  4.38241538E-01 -1.92066510E-01 -8.68419552E-01
  9.46547950E-01  6.80106622E-01 -9.28245844E-01  2.84785031E-01  3.64645977E-02
 -4.84038738E-02  6.59799424E-01 -3.02436071E-01  4.25482521E-01 -5.62577052E-01
 -7.51125009E-01  3.40571653E-01 -6.59816151E-01  8.63157620E-01 -3.65851673E-01
  2.27358232E-01 -5.39319033E-01  1.12427627E+00  1.11586041E-02 -5.63502897E-01
 -5.98327840E-02  7.79570250E-01 -2.14986495E-01 -1.90944893E-01  6.11587018E-01
 -1.12788354E+00  3.34766481E-01  3.52363238E-01 -6.08137283E-01 -4.24721155E-02
 -1.79093051E-01 -2.12818687E-01 -5.28576779E-02 -1.00216754E+00  1.53495096E+00
 -7.39183637E-03 -1.53012879E+00 -2.43284987E-01 -1.69261378E-01 -8.32276028E-02
  2.77377853E+00  5.21921440E-01  6.98158739E-01  9.28424628E-01 -6.05309612E-01
 -4.78202200E-02 -6.66641669E-01 -3.50977439E-01 -6.63345268E-01 -7.73828544E-01
Orthonormal basis                          R   N=         225
  4.35090223E-02  1.64726230E-01  2.49052595E-02  3.67526073E-02  5.34952999E-02
  2.23912670E-01  5.54948602E-02  7.05699490E-02  9.06645585E-02  9.49582899E-02
  1.67481417E-01  1.27416020E-01  1.98626548E-01  1.56431467E-01  2.21235309E-01
 -4.55462703E-03 -1.03601456E-02  9.11958717E-03  2.23240152E-01 -2.07343581E-01
  1.45529903E-03  1.13757738E-02  3.17572878E-01 -2.67510418E-01 -1.57573081E-02
 -1.27244493E-02  2.65030694E-01  2.21697569E-01 -2.24966457E-01 -1.51578953E-01
 -1.54847754E-02 -3.86764130E-02  2.52170342E-01 -9.30789341E-02 -1.14570351E-01
 -1.81029464E-02  3.78565690E-01 -1.26525303E-01 -1.33728897E-01  3.06822332E-01
  2.97686685E-01 -9.42479956E-02 -6.73230713E-02 -1.36255128E-01 -8.08380709E-02
 -1.69011728E-01 -3.12947705E-01  1.57560042E-01  2.36533106E-01  2.98125965E-01
 -2.78267085E-01  1.82187447E-01  2.61854825E-01  3.16573318E-01  6.86776403E-02
  1.52844227E-02  9.55188340E-02  3.96708010E-03  1.05042143E-01 -1.40902178E-02
  4.84989623E-01  2.07603381E-01  5.98569003E-01  4.86787532E-02  6.84697331E-02
  1.56207855E-02  2.21992531E-01  2.09529189E-02  8.29188334E-03 -4.11227390E-01
 -2.53057401E-01  1.17659136E-02 -5.40230065E-02  6.51982300E-02 -5.98550978E-02
  7.40096080E-01  5.69786932E-03 -3.51266342E-01  3.48165187E-01  1.29292430E-01
 -8.92888305E-02 -5.57230630E-02  1.09117051E-01  6.66383949E-02  3.31240418E-01
  1.33964334E-01 -2.05612862E-01 -1.44589816E-01 -8.50275922E-02 -9.23554362E-02
 -3.55341586E-01  2.58883138E-01  1.11587453E-01  7.49958564E-01 -3.12568848E-01
  1.19945756E-01 -6.82395343E-03  5.34303556E-03 -6.09371424E-02 -3.81182503E-02
 -1.73445482E-02 -4.87112708E-01 -2.54932999E-01  2.23851713E-01  9.97727087E-02
 -2.99301121E-01  5.35458151E-01 -3.68354397E-02  1.17424121E-01  8.96174576E-01
  1.86558713E-01  2.19787389E-02 -5.00370273E-02 -2.61977404E-01  5.14606531E-02
 -9.83325292E-03 -1.87357901E-02 -6.09202955E-02 -3.29612811E-01 -3.58987691E-01
 -2.19856398E-02  1.87460453E-01 -8.12924900E-01 -7.67036848E-02 -6.75233204E-02
 -1.37757862E-01  9.66641142E-01  8.34718114E-02 -1.55497358E-01 -5.61257751E-01
  1.44497041E-01  1.19399059E-01 -1.26846623E-01  5.30596751E-01 -2.79163789E-01
 -3.59649633E-02  2.04124094E-01  1.34057753E-01 -6.09880395E-01  1.35638436E-02
 -1.06562457E-01 -1.34809061E-01  9.13413846E-01 -2.51940524E-01  3.46912177E-01
 -1.99926019E-01 -7.34462605E-01  2.59792258E-01  5.38340309E-01 -2.96860550E-01
 -1.42876291E-01  8.38893004E-01 -7.35858203E-02 -2.02296890E-01 -4.62289990E-01
 -2.14608651E-01  1.38070384E-01  2.37243889E-01  8.20020129E-01  4.35160964E-01
 -4.06969338E-01  3.98348209E-01 -4.43090005E-01 -3.15558727E-01 -1.59181206E-01
  5.84484045E-02 -1.39556999E-01  1.51918064E-01  1.53145686E-01  3.31803293E-02
  1.21812385E-01 -1.84913439E-01 -3.56690176E-01 -5.02545768E-01  6.81716881E-01
 -4.49081133E-01  7.59376066E-01 -4.17736080E-01  9.49518875E-01 -4.01653957E-01
 -2.10226422E-04  2.78321167E-01  3.52951014E-01 -1.88043863E-01 -9.05423771E-02
 -2.57964972E-01 -9.34393025E-01  4.37698359E-01  7.81300437E-02 -6.11922105E-01
  1.61395754E+00  4.33402393E-01 -8.76105766E-01  3.24744099E-01 -5.21775624E-01
  8.02969081E-04  3.73150441E-01  1.09727443E-01  3.64580502E-01 -3.27573432E-01
 -5.00368811E-01 -3.20892545E-01 -1.12719146E+00  8.51283861E-01 -1.26466657E-02
  3.12175402E-01 -2.60042571E-01  1.69606014E+00  4.53375221E-01 -1.59853990E+00
 -4.04204129E-02 -1.49864283E+00 -9.26513693E-02 -1.39300925E-01 -2.68727046E-01
  3.39909682E+00  2.91963814E-01  6.15736832E-01  1.39157042E+00 -2.51025831E-01
 -1.68327225E-01 -3.26887535E-01 -6.24894629E-01 -2.86662813E-01 -1.87063991E+00
Total SCF Density                          R   N=         120
  2.08236000E+00 -1.56133644E-01  4.62671683E-01  2.47980080E-02 -6.27240932E-02
  3.85246708E-01  2.81084198E-02 -5.85453953E-02  5.83499302E-03  4.71513379E-01
  3.01458860E-02 -4.71464158E-02  2.52140515E-03  2.89692264E-02  5.39069957E-01
 -3.15917440E-01  6.03635197E-01 -1.01489900E-01 -1.62070163E-01 -2.59132829E-01
  8.80204123E-01  1.34494719E-02 -4.55776013E-02  2.68216352E-01  1.43655159E-02
  1.96502881E-02 -8.09760050E-02  1.87531306E-01  1.44761416E-02 -4.44764278E-02
  1.58031887E-02  2.82050603E-01  5.14319008E-02 -1.21408048E-01  1.82633446E-02
  1.71338420E-01  1.55661691E-02 -4.58371518E-02  2.74722761E-02  5.73027625E-02
  2.71023860E-01 -1.65913655E-01  2.89581660E-02  5.22321657E-02  1.42268406E-01
 -4.32379121E-03  3.49927061E-03  2.44032136E-01 -2.88230682E-02 -9.53233401E-03
 -1.00922194E-03  1.68972431E-01 -1.04050407E-02  7.82603886E-03  1.60348908E-01
  1.67585126E-02 -4.31292287E-02  3.27711610E-01 -5.16593881E-02 -3.17448004E-02
 -5.19528107E-02  2.25943797E-01 -2.23440593E-02  1.37348062E-03  2.12083015E-01
  2.87293966E-01 -2.11691177E-02  4.31890035E-02  2.32516098E-03  2.93834748E-01
 -3.31804236E-02  1.69518232E-02  6.54739236E-03  1.71707070E-01  7.96866887E-03
 -1.13289570E-02 -3.02680478E-02  2.00902000E-01  2.84671881E-02 -5.26400211E-02
  5.50794662E-04  2.84708290E-01 -3.73971880E-02 -9.95545869E-02  4.78741828E-03
  1.66950988E-01  7.70906145E-03 -2.03077879E-02 -3.06607641E-02  1.78844434E-01
  1.78677976E-01 -3.73143656E-02  8.55497245E-02 -3.04349710E-02 -2.72881791E-02
  3.41472784E-01 -1.08412181E-02 -1.05267999E-02  3.39204780E-03  1.62429763E-01
 -1.40777919E-02 -4.19046216E-02 -3.16568085E-02 -5.66347170E-02  2.48363285E-01
  4.30978094E-02 -6.51278527E-02 -2.80485012E-02 -2.57959485E-02  2.64183880E-01
 -1.71513447E-01 -1.16628196E-02  1.02992666E-03  1.28706834E-01 -2.50561945E-02
 -3.59597526E-02 -5.01826043E-02 -3.98862760E-02  1.61249301E-01  1.41123277E-01
Grdnt Energy                               R     -5.642836166582686E+01
Grdnt NVar                                 I                0
Grdnt IGetFC                               I                4
Mulliken Charges                           R   N=           4
 -5.83798203E-01  9.54398852E-02  2.15321861E-01  2.73036457E-01
ONIOM Charges                              I   N=          16
           0           0           0           0           0           0
           0           0           0           0           0           0
           0           0           0           0
ONIOM Multiplicities                       I   N=          16
           1           0           0           0           0           0
           0           0           0           0           0           0
           0           0           0           0
Atom Layers                                I   N=           4
           1           1           1           1
Atom Modifiers                             I   N=           4
           0           0           0           0
Force Field                                I                0
Atom Modified Types                        C   N=           4
                                                
Int Atom Modified Types                    I   N=           4
           0           0           0           0
Link Atoms                                 I   N=           4
           0           0           0           0
Atom Modified MM Charges                   R   N=           4
  0.00000000E+00  0.00000000E+00  0.00000000E+00  0.00000000E+00
Link Distances                             R   N=          16
  0.00000000E+00  0.00000000E+00  0.00000000E+00  0.00000000E+00  0.00000000E+00
  0.00000000E+00  0.00000000E+00  0.00000000E+00  0.00000000E+00  0.00000000E+00
  0.00000000E+00  0.00000000E+00  0.00000000E+00  0.00000000E+00  0.00000000E+00
  0.00000000E+00
Cartesian Gradient                         R   N=          12
 -1.14269009E-01 -8.80573484E-02  5.19409339E-03  7.91214205E-02  7.54878134E-03
  2.31340892E-02  1.45931523E-02  6.18890507E-02  1.67743553E-02  2.05544365E-02
  1.86195164E-02 -4.51025378E-02
Cartesian Force Constants                  R   N=          78
  2.11968489E-02 -4.05249743E-04  1.51729477E-01 -2.11506677E-02 -1.28034007E-02
  5.82001297E-01  2.94420908E-02  6.05882192E-03  2.09291441E-02  6.10573391E-03
 -8.58481691E-03 -4.21418626E-02  4.53537945E-03 -1.14010426E-02  4.68704826E-02
  9.69845323E-04  5.27342859E-03 -3.90747438E-02 -2.39339965E-02 -3.57272583E-03
  4.29207090E-02 -4.92475436E-02 -1.05761917E-02  7.83268597E-03 -1.06562132E-02
  2.31014549E-02 -4.40948380E-03  5.57885037E-02  3.78455534E-03 -9.94553929E-02
  2.59608429E-02  3.19558312E-03 -7.13194292E-03  6.56520062E-04 -4.54907714E-03
  1.29593001E-01  2.90741982E-03 -1.77599699E-02 -5.28205658E-02 -1.11307483E-04
 -3.85508079E-04  7.67420226E-04 -2.79563770E-03 -2.77581407E-02  6.54827193E-02
 -1.39139618E-03  4.92261955E-03 -7.61116233E-03 -2.48916116E-02 -3.11559545E-03
  2.73736350E-02  4.11525311E-03 -2.43106132E-03 -4.74636125E-07  2.21677546E-02
  5.20551132E-03 -1.01322212E-02 -1.76928217E-02  2.14663752E-03  2.40332294E-03
 -2.35722283E-03 -7.97618605E-03 -2.30056655E-02  4.59036187E-02  6.24037212E-04
  3.07345638E-02  1.72734026E-02  2.52899420E-02 -4.90105988E-01  3.11615990E-03
 -5.77145538E-04 -4.61338546E-03 -6.27564470E-04  1.14077776E-03 -1.34295738E-02
 -1.97619980E-02 -2.58535742E-02  5.08148947E-01
Nonadiabatic coupling                      R   N=          12
  0.00000000E+00  0.00000000E+00  0.00000000E+00  0.00000000E+00  0.00000000E+00
  0.00000000E+00  0.00000000E+00  0.00000000E+00  0.00000000E+00  0.00000000E+00
  0.00000000E+00  0.00000000E+00
Dipole Moment                              R   N=           3
  3.39293247E-01  5.69712758E-01  7.15348250E-01
Dipole Derivatives                         R   N=          36
  9.64252687E-03  2.49527346E-03  3.89227451E-02  3.93773967E-02  2.02422482E-02
  5.62381023E-02  1.42468520E-01  1.34670816E-01 -5.24957873E-02 -2.79681082E-01
  4.45226849E-02 -9.48869223E-03 -9.87554287E-02  9.50573841E-02 -2.24779528E-03
 -1.97022833E-01  2.15041138E-02  8.69583013E-02  1.29799679E-01 -5.40975488E-02
 -6.14370601E-05  2.41338160E-02 -2.79569536E-01  3.29766966E-02  1.29107608E-02
 -1.62720585E-01  1.78385230E-01  1.40238875E-01  7.07959047E-03 -2.93726158E-02
  3.52442161E-02  1.64269904E-01 -8.69670037E-02  4.16435527E-02  6.54565529E-03
 -2.12847744E-01
Polarizability                             R   N=           6
  1.91541808E+01 -1.06132612E+00  1.24946763E+01  1.11444777E+00 -6.20720153E-01
  8.67588119E+00
Quadrupole Moment                          R   N=           6
  5.84137662E-02  5.02539054E-02 -1.08667672E-01  1.01033275E-01  1.32848253E-01
 -9.98560428E-02
QEq coupling tensors                       R   N=          24
 -5.63651293E-01  5.77289971E-02  4.97632195E-02  3.76344282E-02  2.39495647E-01
  5.13888074E-01 -2.65622918E-02  1.57964576E-02  1.15380789E-02  1.90053244E-02
  3.76592997E-03  1.50242128E-02  7.35313381E-02 -1.44800443E-03 -1.40000967E-01
  3.13298344E-03  3.37240798E-02  6.64696284E-02  2.33170817E-01  4.01212825E-04
  2.32270458E-01  3.29355839E-02  3.50182319E-02 -4.65441276E-01
Number of Normal Modes                     I                6
Vib-LE2Fix                                 I               14
Vib-NDFDPol                                I                0
Vib-NumROA                                 I                0
Vib-NDim                                   I                4
Vib-NDim0                                  I                4
Vib-LFlags                                 I                8
Vib-IFlags                                 I   N=          48
           0           0           1           0           0           0
           0           0           0           0           2           0
           0           0           0           0           0           0
           3           0           0           0           0           0
           0           0           4           0           0           0
           0           0           0           0           5           0
           0           0           0           0           0           0
           6           0           0           0           0           0
Vib-AtMass                                 R   N=           4
  1.40030740E+01  1.00782504E+00  1.00782504E+00  1.00782504E+00
Vib-E2                                     R   N=          84
 -6.27138977E+02  1.34162121E+03  1.37965306E+03  1.49532739E+03  2.01759737E+03
  3.77910378E+03  1.12295802E+00  1.02315169E+00  1.13950340E+00  1.02931892E+00
  1.02760287E+00  1.06782653E+00  2.60220382E-01  1.08505077E+00  1.27792570E+00
  1.35604073E+00  2.46458908E+00  8.98521645E+00  6.63375488E+01  7.51075439E+00
  2.34024427E+01  9.92287936E+00  6.16052852E+01  4.14735519E+01  0.00000000E+00
  0.00000000E+00  0.00000000E+00  0.00000000E+00  0.00000000E+00  0.00000000E+00
  0.00000000E+00  0.00000000E+00  0.00000000E+00  0.00000000E+00  0.00000000E+00
  0.00000000E+00  0.00000000E+00  0.00000000E+00  0.00000000E+00  0.00000000E+00
  0.00000000E+00  0.00000000E+00  0.00000000E+00  0.00000000E+00  0.00000000E+00
  0.00000000E+00  0.00000000E+00  0.00000000E+00  0.00000000E+00  0.00000000E+00
  0.00000000E+00  0.00000000E+00  0.00000000E+00  0.00000000E+00  1.00000000E+02
  1.00000000E+02  1.00000000E+02  1.00000000E+02  1.00000000E+02  1.00000000E+02
  0.00000000E+00  0.00000000E+00  0.00000000E+00  0.00000000E+00  0.00000000E+00
  0.00000000E+00  0.00000000E+00  0.00000000E+00  0.00000000E+00  0.00000000E+00
  0.00000000E+00  0.00000000E+00  0.00000000E+00  0.00000000E+00  0.00000000E+00
  0.00000000E+00  0.00000000E+00  0.00000000E+00  0.00000000E+00  0.00000000E+00
  0.00000000E+00  0.00000000E+00  0.00000000E+00  0.00000000E+00
Vib-Modes                                  R   N=          72
 -9.16475560E-02 -3.64609421E-03 -2.11436259E-02  8.96007093E-01  7.86385753E-02
  3.06200160E-01  9.75233635E-02 -9.29826780E-03 -2.46040221E-03  2.79852781E-01
 -1.86801977E-02 -9.96281487E-03 -5.19119101E-03  2.01995229E-02 -2.72843444E-02
 -3.36448944E-01 -2.51679060E-01  4.41663915E-01 -3.14884140E-01 -3.42378668E-03
 -6.32435094E-02  7.23461310E-01 -2.55563993E-02  6.77831599E-04 -2.24466601E-02
 -8.83372645E-02 -4.27256712E-02 -1.56854050E-01  2.08942523E-01  5.85559579E-02
  2.97497865E-01  4.35836545E-01  5.20331938E-01  1.71237941E-01  5.82609821E-01
  1.47575421E-02 -4.00518134E-02  3.65830587E-04  7.04971180E-03 -2.85064452E-01
  5.12718367E-01  1.18834887E-01  6.27723990E-01 -1.58087627E-01 -2.14308370E-01
  2.13834384E-01 -3.59713718E-01 -2.47768120E-03  1.68158864E-03 -3.15080369E-02
  2.29421872E-02  2.62404842E-02 -7.13776561E-02  2.41641071E-03 -1.65420526E-02
  8.72160211E-01 -3.14395323E-01 -3.30630131E-02 -3.62998857E-01 -6.78787138E-03
  1.87246000E-03  3.04503964E-03 -6.78557901E-02  6.33351098E-03 -1.77173267E-03
 -1.69740908E-02 -2.04984253E-03  1.97787961E-03 -3.57244505E-02 -3.03002834E-02
 -4.25149941E-02  9.95510652E-01
ClPar MaxAn                                I              200
ClPar NIntPar                              I                4
ClPar NRealPar                             I               16
ClPar NBits                                I               30
ClPar LenBitVec                            I                1
ClPar Read BitMap                          I   N=         200
           0           0           0           0           0           0
           0           0           0           0           0           0
           0           0           0           0           0           0
           0           0           0           0           0           0
           0           0           0           0           0           0
           0           0           0           0           0           0
           0           0           0           0           0           0
           0           0           0           0           0           0
           0           0           0           0           0           0