NH3 HF Frequency                                                        
Freq      RHF                                                         6-31G               
Number of atoms                            I                4
Info1-9                                    I   N=           9
          11          11           0           0           0         100
           6           1           2
Full Title                                 C   N=           2
NH3 HF Frequency        
Route                                      C   N=           4
#p RHF/6-31G nosymm SCF(VeryTight) Freq         
Charge                                     I                0
Multiplicity                               I                1
Number of electrons                        I               10
Number of alpha electrons                  I                5
Number of beta electrons                   I                5
Number of basis functions                  I               15
Number of independent functions            I               15
Number of point charges in /Mol/           I                0
Number of translation vectors              I                0
Atomic numbers                             I   N=           4
           7           1           1           1
Nuclear charges                            R   N=           4
  7.00000000E+00  1.00000000E+00  1.00000000E+00  1.00000000E+00
Current cartesian coordinates              R   N=          12
  0.00000000E+00  0.00000000E+00  0.00000000E+00  2.83458919E+00  0.00000000E+00
  3.77945225E-01  1.88972612E-01  2.26767135E+00  0.00000000E+00  0.00000000E+00
  0.00000000E+00  1.88972612E+00
Number of symbols in /Mol/                 I                0
Force Field                                I                0
Atom Types                                 C   N=           4
                                                
Int Atom Types                             I   N=           4
           0           0           0           0
MM charges                                 R   N=           4
  0.00000000E+00  0.00000000E+00  0.00000000E+00  0.00000000E+00
Integer atomic weights                     I   N=           4
          14           1           1           1
Real atomic weights                        R   N=           4
  1.40030740E+01  1.00782504E+00  1.00782504E+00  1.00782504E+00
Atom fragment info                         I   N=           4
           0           0           0           0
Atom residue num                           I   N=           4
           0           0           0           0
Nuclear spins                              I   N=           4
           2           1           1           1
Nuclear ZEff                               R   N=           4
 -4.55000000E+00 -1.00000000E+00 -1.00000000E+00 -1.00000000E+00
Nuclear ZNuc                               R   N=           4
  7.00000000E+00  1.00000000E+00  1.00000000E+00  1.00000000E+00
Nuclear QMom                               R   N=           4
  2.04400000E+00  0.00000000E+00  0.00000000E+00  0.00000000E+00
Nuclear GFac                               R   N=           4
  4.03761000E-01  2.79284600E+00  2.79284600E+00  2.79284600E+00
MicOpt                                     I   N=           4
          -1          -1          -1          -1
Number of residues                         I                0
Number of secondary structures             I                0
Number of contracted shells                I                9
Number of primitive shells                 I               22
Pure/Cartesian d shells                    I                1
Pure/Cartesian f shells                    I                0
Highest angular momentum                   I                1
Largest degree of contraction              I                6
Shell types                                I   N=           9
           0          -1          -1           0           0           0
           0           0           0
Number of primitives per shell             I   N=           9
           6           3           1           3           1           3
           1           3           1
Shell to atom map                          I   N=           9
           1           1           1           2           2           3
           3           4           4
Primitive exponents                        R   N=          22
  4.17351146E+03  6.27457911E+02  1.42902093E+02  4.02343293E+01  1.28202129E+01
  4.39043701E+00  1.16263619E+01  2.71627981E+00  7.72218397E-01  2.12031498E-01
  1.87311370E+01  2.82539436E+00  6.40121692E-01  1.61277759E-01  1.87311370E+01
  2.82539436E+00  6.40121692E-01  1.61277759E-01  1.87311370E+01  2.82539436E+00
  6.40121692E-01  1.61277759E-01
Contraction coefficients                   R   N=          22
  1.83477216E-03  1.39946270E-02  6.85865518E-02  2.32240873E-01  4.69069948E-01
  3.60455199E-01 -1.14961182E-01 -1.69117479E-01  1.14585195E+00  1.00000000E+00
  3.34946043E-02  2.34726953E-01  8.13757326E-01  1.00000000E+00  3.34946043E-02
  2.34726953E-01  8.13757326E-01  1.00000000E+00  3.34946043E-02  2.34726953E-01
  8.13757326E-01  1.00000000E+00
P(S=P) Contraction coefficients            R   N=          22
  0.00000000E+00  0.00000000E+00  0.00000000E+00  0.00000000E+00  0.00000000E+00
  0.00000000E+00  6.75797439E-02  3.23907296E-01  7.40895140E-01  1.00000000E+00
  0.00000000E+00  0.00000000E+00  0.00000000E+00  0.00000000E+00  0.00000000E+00
  0.00000000E+00  0.00000000E+00  0.00000000E+00  0.00000000E+00  0.00000000E+00
  0.00000000E+00  0.00000000E+00
Coordinates of each shell                  R   N=          27
  0.00000000E+00  0.00000000E+00  0.00000000E+00  0.00000000E+00  0.00000000E+00
  0.00000000E+00  0.00000000E+00  0.00000000E+00  0.00000000E+00  2.83458919E+00
  0.00000000E+00  3.77945225E-01  2.83458919E+00  0.00000000E+00  3.77945225E-01
  1.88972612E-01  2.26767135E+00  0.00000000E+00  1.88972612E-01  2.26767135E+00
  0.00000000E+00  0.00000000E+00  0.00000000E+00  1.88972612E+00  0.00000000E+00
  0.00000000E+00  1.88972612E+00
Num ILSW                                   I              100
ILSW                                       I   N=         100
           0           1           0           0           2           0
           0           0           0           0           0          -1
           5           0           0           0           2           0
           0           0           0           0           1           0
           1           1           0           0           0           0
           0           0      100000           0          -1           0
           0           0           0           0           0           0
           0           0           0           1           0           0
           0 -2000000000           1           0           0           0
           0           0           4          52           0           0
           0           0           0           0           0           0
           0           0           0           4           0           1
           0           0           0           0           0           0
           0           0           0           0           0           0
           0           0           0           0           0           0
           0           0           0           0           0           0
           0           0           0           0
Num RLSW                                   I               52
RLSW                                       R   N=          52
  1.00000000E+00  1.00000000E+00  1.00000000E+00  1.00000000E+00  1.00000000E+00
  0.00000000E+00  0.00000000E+00  1.00000000E+00  0.00000000E+00  0.00000000E+00
  0.00000000E+00  0.00000000E+00  1.00000000E+00  0.00000000E+00  0.00000000E+00
  0.00000000E+00  0.00000000E+00  1.00000000E+00  0.00000000E+00  0.00000000E+00
  0.00000000E+00  0.00000000E+00  1.00000000E+00  0.00000000E+00  0.00000000E+00
  0.00000000E+00  0.00000000E+00  1.00000000E+00  0.00000000E+00  0.00000000E+00
  0.00000000E+00  0.00000000E+00  1.00000000E+00  0.00000000E+00  0.00000000E+00
  0.00000000E+00  0.00000000E+00  0.00000000E+00  1.00000000E+00  1.00000000E+00
  0.00000000E+00  1.00000000E+00  0.00000000E+00  0.00000000E+00  0.00000000E+00
  0.00000000E+00  0.00000000E+00  0.00000000E+00  0.00000000E+00  0.00000000E+00
  0.00000000E+00  0.00000000E+00
MxBond                                     I                1
NBond                                      I   N=           4
           1           0           0           1
IBond                                      I   N=           4
           4           0           0           1
RBond                                      R   N=           4
  1.00000000E+00  0.00000000E+00  0.00000000E+00  1.00000000E+00
Virial Ratio                               R      2.008188549794333E+00
SCF Energy                                 R     -5.602979150621450E+01
Total Energy                               R     -5.602979150621450E+01
RMS Force                                  R      6.677229925843800E-02
RMS Density                                R      4.181046772667466E-09
NImag                                      I                1
Job Status                                 I                1
Nuclear derivative order                   I                2
External E-field                           R   N=          35
  0.00000000E+00  0.00000000E+00  0.00000000E+00  0.00000000E+00  0.00000000E+00
  0.00000000E+00  0.00000000E+00  0.00000000E+00  0.00000000E+00  0.00000000E+00
  0.00000000E+00  0.00000000E+00  0.00000000E+00  0.00000000E+00  0.00000000E+00
  0.00000000E+00  0.00000000E+00  0.00000000E+00  0.00000000E+00  0.00000000E+00
  0.00000000E+00  0.00000000E+00  0.00000000E+00  0.00000000E+00  0.00000000E+00
  0.00000000E+00  0.00000000E+00  0.00000000E+00  0.00000000E+00  0.00000000E+00
  0.00000000E+00  0.00000000E+00  0.00000000E+00  0.00000000E+00  0.00000000E+00
IOpCl                                      I                0
IROHF                                      I                0
Alpha Orbital Energies                     R   N=          15
 -1.56420356E+01 -1.12980526E+00 -5.88853414E-01 -4.99630361E-01 -4.56643747E-01
  1.14526941E-01  2.03045014E-01  2.81978901E-01  8.74360345E-01  9.47123881E-01
  1.01511171E+00  1.02390622E+00  1.07441303E+00  1.21718659E+00  1.63692752E+00
Alpha MO coefficients                      R   N=         225
  9.96262546E-01  2.18085147E-02  1.22887612E-03  1.54238107E-03  1.97902289E-03
 -9.57081740E-03 -1.16660620E-03 -1.73527286E-03 -2.44755394E-03  6.19288310E-04
  7.48705247E-04  4.82057778E-04  1.74325851E-03  1.67496924E-04  3.02304250E-03
 -1.97161607E-01  4.16861222E-01  1.66503607E-02  5.75898501E-02  1.21113358E-01
  4.75331412E-01  2.84643102E-02  4.91280714E-02  6.64837543E-02  5.23033035E-02
  1.81245171E-02  1.06774109E-01  9.86402349E-03  1.81516904E-01  2.29755315E-03
  3.02976594E-02 -5.14942979E-02 -3.83903517E-02 -2.43754009E-01  4.12633947E-01
 -1.65497644E-01 -2.58079468E-02 -1.44597678E-01  2.05630021E-01 -2.32318484E-02
 -3.44827764E-02 -2.05508795E-01 -1.88172514E-01  2.79038700E-01  2.09550539E-01
  7.01698232E-02 -1.57083990E-01 -8.22868149E-02  3.96583003E-01  2.65869297E-01
 -3.00792427E-01 -5.80516707E-02  2.81785201E-01  1.81174661E-01 -1.01628261E-01
 -1.59563855E-01  1.98168725E-01  1.99235736E-01  1.06288168E-01  8.48197654E-02
  5.87537347E-02 -1.61494047E-01  4.00501824E-01  7.51720271E-02  1.04271132E-01
 -2.06218677E-01  3.34134108E-01  7.13961475E-02  1.00556034E-01  2.34506067E-01
  3.48122915E-01  1.45176207E-02  1.71828538E-02 -1.77620045E-03 -1.92631852E-03
  6.44590303E-02 -8.44685613E-02 -3.84953753E-01 -4.24496510E-02 -3.89055941E-02
 -7.09396100E-01 -6.05013446E-01 -1.21002649E-01 -1.40435965E-01  1.73733429E-01
  9.00579145E-01  3.74537000E-03  3.00990864E-01 -1.78463384E-02  3.16658879E-01
  5.85272276E-02 -5.58170951E-02  1.36747147E-01 -3.25931865E-01 -6.58692281E-02
 -9.15968322E-01  1.83451735E-01 -6.74679089E-01 -2.20896040E-01 -1.02965546E-01
 -4.04809928E-01  1.22990590E-01  1.26877631E+00  1.81726245E-02  5.95434792E-01
  3.01077037E-02 -1.42379280E-02  7.86767947E-02  1.75783077E-01 -3.06750223E-01
 -7.32456344E-01  1.23410443E-01  3.66313380E-01 -8.36201005E-01 -4.13981531E-02
 -1.90497677E-01 -7.08590742E-02 -7.05567655E-01  6.95997929E-02  1.86317414E+00
 -1.41065465E-02 -1.58114225E-01 -1.62383164E-01 -9.07541137E-02 -4.44074432E-01
  6.88076734E-01  2.21203440E-01 -2.61429088E-02  9.61870380E-01  4.92564286E-01
 -6.34611045E-01  5.83778280E-01 -5.73478960E-01 -6.63769020E-01  9.08841869E-02
  5.10015527E-03  2.57989270E-02  4.46618135E-01  4.35758394E-01  1.20586488E-01
 -1.56804509E-01 -5.93585470E-01 -6.34279386E-01  1.11210019E-01 -7.35009521E-01
  9.70860185E-01  5.60395073E-01 -3.33656278E-01 -3.42027845E-01  5.87390639E-02
 -4.66327087E-02  6.01642611E-01  2.93006666E-01 -5.77945646E-01 -4.75597079E-01
 -5.04124812E-01 -4.28135594E-01  7.63600900E-01  6.25520014E-01 -5.28828704E-01
  8.26246047E-01 -1.74389145E-01 -1.31601999E-01 -2.19018605E-02 -2.83198252E-01
  1.65818425E-02  1.14875107E-01 -7.22803541E-01 -2.15645677E-01  1.83190771E-02
 -2.75190827E-01  7.69916449E-01  1.29887956E-01 -3.44205211E-01 -5.54262085E-01
  3.64248817E-01  6.61614217E-01 -6.54141554E-01  3.46634919E-01  1.46197408E-01
 -4.16680879E-02  6.02881916E-01 -3.90968379E-01  6.65088550E-01 -3.81518258E-01
 -7.71711639E-01  4.70122947E-01 -8.86105288E-01  6.02157748E-01 -1.82442415E-01
 -5.66419429E-02 -5.63917318E-01  1.18129117E+00 -7.23530306E-02 -2.94151095E-01
 -5.50556294E-02  7.58447349E-01 -1.80957686E-01 -1.71533908E-01  7.22924873E-01
 -1.09265858E+00  2.73265649E-01  3.00783798E-01 -7.00222663E-01  6.13598670E-03
 -1.83150216E-01 -1.41311115E-01 -9.02132340E-02 -9.80655353E-01  1.49120165E+00
 -1.14607689E-02 -1.48611824E+00 -2.74537178E-01 -1.74651249E-01 -6.68587139E-02
  2.69532964E+00  5.43418760E-01  6.93480657E-01  8.92759108E-01 -6.35603104E-01
 -3.81425011E-02 -6.79435923E-01 -3.34723886E-01 -6.84012284E-01 -7.12979875E-01
Orthonormal basis                          R   N=         225
  4.35090223E-02  1.64726230E-01  2.49052595E-02  3.67526073E-02  5.34952999E-02
  2.23912670E-01  5.54948602E-02  7.05699490E-02  9.06645585E-02  9.49582899E-02
  1.67481417E-01  1.27416020E-01  1.98626548E-01  1.56431467E-01  2.21235309E-01
 -4.55462703E-03 -1.03601456E-02  9.11958717E-03  2.23240152E-01 -2.07343581E-01
  1.45529903E-03  1.13757738E-02  3.17572878E-01 -2.67510418E-01 -1.57573081E-02
 -1.27244493E-02  2.65030694E-01  2.21697569E-01 -2.24966457E-01 -1.51578953E-01
 -1.54847754E-02 -3.86764130E-02  2.52170342E-01 -9.30789341E-02 -1.14570351E-01
 -1.81029464E-02  3.78565690E-01 -1.26525303E-01 -1.33728897E-01  3.06822332E-01
  2.97686685E-01 -9.42479956E-02 -6.73230713E-02 -1.36255128E-01 -8.08380709E-02
 -1.69011728E-01 -3.12947705E-01  1.57560042E-01  2.36533106E-01  2.98125965E-01
 -2.78267085E-01  1.82187447E-01  2.61854825E-01  3.16573318E-01  6.86776403E-02
  1.52844227E-02  9.55188340E-02  3.96708010E-03  1.05042143E-01 -1.40902178E-02
  4.84989623E-01  2.07603381E-01  5.98569003E-01  4.86787532E-02  6.84697331E-02
  1.56207855E-02  2.21992531E-01  2.09529189E-02  8.29188334E-03 -4.11227390E-01
 -2.53057401E-01  1.17659136E-02 -5.40230065E-02  6.51982300E-02 -5.98550978E-02
  7.40096080E-01  5.69786932E-03 -3.51266342E-01  3.48165187E-01  1.29292430E-01
 -8.92888305E-02 -5.57230630E-02  1.09117051E-01  6.66383949E-02  3.31240418E-01
  1.33964334E-01 -2.05612862E-01 -1.44589816E-01 -8.50275922E-02 -9.23554362E-02
 -3.55341586E-01  2.58883138E-01  1.11587453E-01  7.49958564E-01 -3.12568848E-01
  1.19945756E-01 -6.82395343E-03  5.34303556E-03 -6.09371424E-02 -3.81182503E-02
 -1.73445482E-02 -4.87112708E-01 -2.54932999E-01  2.23851713E-01  9.97727087E-02
 -2.99301121E-01  5.35458151E-01 -3.68354397E-02  1.17424121E-01  8.96174576E-01
  1.86558713E-01  2.19787389E-02 -5.00370273E-02 -2.61977404E-01  5.14606531E-02
 -9.83325292E-03 -1.87357901E-02 -6.09202955E-02 -3.29612811E-01 -3.58987691E-01
 -2.19856398E-02  1.87460453E-01 -8.12924900E-01 -7.67036848E-02 -6.75233204E-02
 -1.37757862E-01  9.66641142E-01  8.34718114E-02 -1.55497358E-01 -5.61257751E-01
  1.44497041E-01  1.19399059E-01 -1.26846623E-01  5.30596751E-01 -2.79163789E-01
 -3.59649633E-02  2.04124094E-01  1.34057753E-01 -6.09880395E-01  1.35638436E-02
 -1.06562457E-01 -1.34809061E-01  9.13413846E-01 -2.51940524E-01  3.46912177E-01
 -1.99926019E-01 -7.34462605E-01  2.59792258E-01  5.38340309E-01 -2.96860550E-01
 -1.42876291E-01  8.38893004E-01 -7.35858203E-02 -2.02296890E-01 -4.62289990E-01
 -2.14608651E-01  1.38070384E-01  2.37243889E-01  8.20020129E-01  4.35160964E-01
 -4.06969338E-01  3.98348209E-01 -4.43090005E-01 -3.15558727E-01 -1.59181206E-01
  5.84484045E-02 -1.39556999E-01  1.51918064E-01  1.53145686E-01  3.31803293E-02
  1.21812385E-01 -1.84913439E-01 -3.56690176E-01 -5.02545768E-01  6.81716881E-01
 -4.49081133E-01  7.59376066E-01 -4.17736080E-01  9.49518875E-01 -4.01653957E-01
 -2.10226422E-04  2.78321167E-01  3.52951014E-01 -1.88043863E-01 -9.05423771E-02
 -2.57964972E-01 -9.34393025E-01  4.37698359E-01  7.81300437E-02 -6.11922105E-01
  1.61395754E+00  4.33402393E-01 -8.76105766E-01  3.24744099E-01 -5.21775624E-01
  8.02969081E-04  3.73150441E-01  1.09727443E-01  3.64580502E-01 -3.27573432E-01
 -5.00368811E-01 -3.20892545E-01 -1.12719146E+00  8.51283861E-01 -1.26466657E-02
  3.12175402E-01 -2.60042571E-01  1.69606014E+00  4.53375221E-01 -1.59853990E+00
 -4.04204129E-02 -1.49864283E+00 -9.26513693E-02 -1.39300925E-01 -2.68727046E-01
  3.39909682E+00  2.91963814E-01  6.15736832E-01  1.39157042E+00 -2.51025831E-01
 -1.68327225E-01 -3.26887535E-01 -6.24894629E-01 -2.86662813E-01 -1.87063991E+00
Total SCF Density                          R   N=         120
  2.08141103E+00 -1.65066226E-01  4.55312518E-01  2.90705204E-02 -8.56162901E-02
  3.37850789E-01  3.00834594E-02 -7.56882428E-02  1.55831422E-02  4.51327797E-01
  3.07537698E-02 -5.86413011E-02  1.21221834E-02  3.93485807E-02  5.32996176E-01
 -2.82978024E-01  5.74026912E-01 -8.71670289E-02 -1.34181646E-01 -2.24428059E-01
  7.72846499E-01  1.60038314E-02 -6.33449878E-02  2.80122981E-01  2.00469578E-02
  2.44044988E-02 -6.72617805E-02  2.32986454E-01  1.63433600E-02 -5.58125928E-02
  2.35482079E-02  3.10382160E-01  5.72866224E-02 -1.04365550E-01  2.52599532E-02
  2.15650753E-01  1.86093894E-02 -5.52529831E-02  3.71487024E-02  6.62233289E-02
  3.03102051E-01 -1.55277081E-01  3.93401800E-02  6.35369878E-02  1.79291119E-01
 -7.50446025E-03  2.21174302E-03  2.08092564E-01 -2.79995875E-02 -1.16360324E-02
  2.18195454E-02  1.72687575E-01 -1.19335062E-02  7.73434624E-03  1.37194274E-01
  1.07693091E-02 -4.36148968E-02  3.08360739E-01 -5.53218992E-02 -3.63122414E-02
 -1.89580856E-02  2.53975293E-01 -2.84656905E-02  4.18783658E-04  1.99205335E-01
  2.96336617E-01 -2.40790110E-02  4.32587728E-02 -1.64872980E-03  2.71850217E-01
 -3.53328641E-02  4.43164792E-02  3.37851146E-03  1.83676761E-01  4.40354363E-03
 -1.27515729E-02 -3.50890908E-02  1.86232826E-01  1.81612857E-02 -4.04638292E-02
 -4.24463801E-03  2.53487475E-01 -4.33718235E-02 -5.53158445E-02 -1.37900919E-03
  1.70118711E-01 -4.36162030E-04 -2.26598039E-02 -3.82805606E-02  1.58913831E-01
  1.50998724E-01 -3.96264209E-02  8.97855709E-02 -3.42947049E-02 -3.10889036E-02
  3.30397695E-01  1.69888903E-02 -1.75971056E-02 -3.21488896E-03  1.77048729E-01
 -1.64139177E-02 -4.78201669E-02 -3.38526322E-02 -5.91415072E-02  2.44222681E-01
  2.94925103E-02 -4.55594144E-02 -3.15075826E-02 -3.48970671E-02  2.18204050E-01
 -1.17465709E-01 -2.18275508E-02 -1.28589400E-02  1.16817444E-01 -2.76360465E-02
 -4.27734867E-02 -5.20740864E-02 -4.50753802E-02  1.35818041E-01  1.02247899E-01
Grdnt Energy                               R     -5.602979150621450E+01
Grdnt NVar                                 I                0
Grdnt IGetFC                               I                4
Mulliken Charges                           R   N=           4
 -6.70711905E-01  1.05453581E-01  2.55096646E-01  3.10161678E-01
ONIOM Charges                              I   N=          16
           0           0           0           0           0           0
           0           0           0           0           0           0
           0           0           0           0
ONIOM Multiplicities                       I   N=          16
           1           0           0           0           0           0
           0           0           0           0           0           0
           0           0           0           0
Atom Layers                                I   N=           4
           1           1           1           1
Atom Modifiers                             I   N=           4
           0           0           0           0
Force Field                                I                0
Atom Modified Types                        C   N=           4
                                                
Int Atom Modified Types                    I   N=           4
           0           0           0           0
Link Atoms                                 I   N=           4
           0           0           0           0
Atom Modified MM Charges                   R   N=           4
  0.00000000E+00  0.00000000E+00  0.00000000E+00  0.00000000E+00
Link Distances                             R   N=          16
  0.00000000E+00  0.00000000E+00  0.00000000E+00  0.00000000E+00  0.00000000E+00
  0.00000000E+00  0.00000000E+00  0.00000000E+00  0.00000000E+00  0.00000000E+00
  0.00000000E+00  0.00000000E+00  0.00000000E+00  0.00000000E+00  0.00000000E+00
  0.00000000E+00
Cartesian Gradient                         R   N=          12
 -1.40770764E-01 -1.16624645E-01 -2.78073773E-02  9.46710120E-02  1.01656142E-02
  2.88572828E-02  1.94976549E-02  8.14876361E-02  2.25037641E-02  2.66020971E-02
  2.49713950E-02 -2.35536696E-02
Cartesian Force Constants                  R   N=          78
  4.10324980E-02 -3.56684334E-03  1.68481253E-01 -2.55149601E-02 -1.16642166E-02
  6.07386765E-01  3.37849793E-02  5.56633792E-03  2.25249853E-02  6.91570878E-03
 -6.64488715E-03 -4.89812080E-02  5.04585215E-03 -1.40226185E-02  5.37373112E-02
  3.76645465E-03  5.20766258E-03 -4.58651515E-02 -2.80091404E-02 -4.52484524E-03
  4.93857914E-02 -5.92809858E-02 -6.91532385E-03  8.40123297E-03 -1.26064381E-02
  2.47022254E-02 -5.52272534E-03  6.60702452E-02  5.45252457E-03 -9.31925628E-02
  2.51270023E-02  5.26791010E-03 -8.65554596E-03  1.59997412E-03 -8.90444085E-03
  1.26157048E-01  2.85852327E-03 -1.78239089E-02 -6.60121468E-02  3.19873344E-04
 -5.19759091E-04  1.82637641E-03 -3.28501346E-03 -3.16237751E-02  7.74874094E-02
 -1.55364915E-02  4.91582927E-03 -5.41125815E-03 -2.80942499E-02 -4.03471970E-03
  2.97654111E-02  5.81717870E-03 -1.81599383E-03  1.06616853E-04  3.78135628E-02
  4.75920592E-03 -2.63074826E-02 -1.85086379E-02  3.18837052E-03  3.89944278E-03
 -2.28279146E-03 -8.88246070E-03 -2.43089391E-02  4.99674431E-02  9.34884263E-04
  4.67169789E-02  1.88899822E-02  2.42804629E-02 -4.95509467E-01  5.16428174E-03
 -1.24781459E-06 -5.34701634E-03  4.06505834E-04  4.89679873E-03 -1.33016391E-02
 -2.44607698E-02 -2.91760138E-02  5.14158122E-01
Nonadiabatic coupling                      R   N=          12
  0.00000000E+00  0.00000000E+00  0.00000000E+00  0.00000000E+00  0.00000000E+00
  0.00000000E+00  0.00000000E+00  0.00000000E+00  0.00000000E+00  0.00000000E+00
  0.00000000E+00  0.00000000E+00
Dipole Moment                              R   N=           3
  3.73299844E-01  6.58047669E-01  7.97918047E-01
Dipole Derivatives                         R   N=          36
  8.57476000E-02 -4.31004109E-02  2.62495802E-02 -1.40651239E-02 -5.68755625E-02
  1.23835568E-02  1.22024702E-01  8.99060001E-02 -2.13307189E-01 -3.81249949E-01
  7.22585725E-02 -1.26030968E-02 -1.17804556E-01  1.11813206E-01 -1.42782575E-03
 -2.36629472E-01  3.20309934E-02  1.03385047E-01  1.49182538E-01 -4.63034391E-02
  3.31552774E-03  7.50205863E-02 -2.57421388E-01  6.12038907E-02  2.77401660E-02
 -1.64494695E-01  2.29815536E-01  1.46319811E-01  1.71452774E-02 -1.69620112E-02
  5.68490934E-02  2.02483745E-01 -7.21596217E-02  8.68646041E-02  4.25577013E-02
 -1.19893395E-01
Polarizability                             R   N=           6
  2.24957103E+01 -1.77686393E+00  1.27193976E+01  1.27226647E+00 -8.83652686E-01
  7.96294159E+00
Polarizability Derivatives                 R   N=          72
 -1.85600437E+01 -3.27194596E-01 -7.70571391E-01 -2.35235223E+00  2.63082607E-01
  3.10915851E-01 -1.06833057E+00 -2.09453984E+00 -1.42729980E+01 -3.14361855E-01
 -1.17783232E+00 -7.53345004E-01 -3.05119344E+00  3.47642759E-02 -1.65640071E+00
 -2.52918847E+00 -1.83798503E+00 -1.07893360E+01  1.80632568E+01 -2.01560938E+00
 -2.62494451E-01  7.79282850E-01 -7.95848216E-02 -3.97245623E-01  1.09382390E+00
  5.70995460E+00 -1.33160248E+00  2.18110014E-01  3.33485478E-01 -3.26805383E-02
  1.96444638E+00 -1.04506873E-01 -1.85455054E-01  6.40204819E+00 -8.54115284E-01
  9.38145573E-01 -1.68844387E-01  2.58252779E+00  1.11396525E+00 -1.02064857E-01
 -2.39812721E-01 -4.47126290E-02  3.72023039E-01 -2.92496443E+00  1.45360996E+01
  1.79659067E-01 -1.14748927E+00 -4.63427794E-02 -1.48959803E-01 -1.84761180E-01
  1.44783083E+00 -8.16717864E-01  3.81295116E+00 -9.11541642E-02  6.65631315E-01
 -2.39723812E-01 -8.08994059E-02  1.67513423E+00  5.63149360E-02  1.31042401E-01
 -3.97516377E-01 -6.90450326E-01  1.06850088E+00 -8.34072256E-02  1.99183611E+00
  8.32368322E-01  1.23570686E+00  2.54503776E-01  3.94024937E-01 -3.05614185E+00
 -1.12085085E+00  9.94234458E+00
HyperPolarizability                        R   N=          10
  9.47607143E+01 -9.83083101E+00 -1.45988249E+01  8.14794818E+01  1.11709308E+01
 -4.47348317E-02 -5.47312773E+00 -1.33624475E+01 -4.36356778E+00  4.73378567E+01
Quadrupole Moment                          R   N=           6
 -2.17909652E-02  9.79680279E-02 -7.61770627E-02  1.26427387E-01  1.46683760E-01
 -8.70616305E-02
QEq coupling tensors                       R   N=          24
 -7.09331889E-01  1.24903892E-01  8.07167627E-02  1.04372785E-01  3.09024862E-01
  6.28615126E-01 -3.27659371E-02  1.61661015E-02  1.50144578E-02  1.80741967E-02
  3.78741052E-03  1.77514793E-02  8.26911938E-02 -2.55808220E-03 -1.56754718E-01
  3.56231994E-03  3.35407441E-02  7.40635243E-02  2.44387600E-01  1.15772714E-03
  2.43640757E-01  3.57675909E-02  3.58887702E-02 -4.88028357E-01
Number of Normal Modes                     I                6
Vib-LE2Fix                                 I               14
Vib-NDFDPol                                I                0
Vib-NumROA                                 I                0
Vib-NDim                                   I                4
Vib-NDim0                                  I                4
Vib-LFlags                                 I                8
Vib-IFlags                                 I   N=          48
           0           0           1           0           0           0
           0           0           0           0           2           0
           0           0           0           0           0           0
           3           0           0           0           0           0
           0           0           4           0           0           0
           0           0           0           0           5           0
           0           0           0           0           0           0
           6           0           0           0           0           0
Vib-AtMass                                 R   N=           4
  1.40030740E+01  1.00782504E+00  1.00782504E+00  1.00782504E+00
Vib-E2                                     R   N=          84
 -6.56881140E+02  1.43827220E+03  1.49224783E+03  1.62094447E+03  2.05713639E+03
  3.80371679E+03  1.12043954E+00  1.11655184E+00  1.05077670E+00  1.02896924E+00
  1.02315680E+00  1.06657889E+00  2.84847370E-01  1.36085315E+00  1.37861357E+00
  1.59290130E+00  2.55104765E+00  9.09200221E+00  1.37028820E+02  1.92507271E+01
  3.29148198E+01  1.25662093E+01  5.27158991E+01  1.67391713E+01  3.17118383E+02
  8.89977143E+01  6.30235421E+01  8.80485245E+01  1.38301452E+02  1.22188629E+02
  3.68158749E-01  3.28713750E-01  6.90428073E-01  4.69446469E-01  4.05657326E-01
  2.86794146E-01  5.38181332E-01  4.94784900E-01  8.16867732E-01  6.38943274E-01
  5.77178119E-01  4.45749845E-01  0.00000000E+00  0.00000000E+00  0.00000000E+00
  0.00000000E+00  0.00000000E+00  0.00000000E+00  0.00000000E+00  0.00000000E+00
  0.00000000E+00  0.00000000E+00  0.00000000E+00  0.00000000E+00  1.00000000E+02
  1.00000000E+02  1.00000000E+02  1.00000000E+02  1.00000000E+02  1.00000000E+02
  0.00000000E+00  0.00000000E+00  0.00000000E+00  0.00000000E+00  0.00000000E+00
  0.00000000E+00  0.00000000E+00  0.00000000E+00  0.00000000E+00  0.00000000E+00
  0.00000000E+00  0.00000000E+00  0.00000000E+00  0.00000000E+00  0.00000000E+00
  0.00000000E+00  0.00000000E+00  0.00000000E+00  0.00000000E+00  0.00000000E+00
  0.00000000E+00  0.00000000E+00  0.00000000E+00  0.00000000E+00
Vib-Modes                                  R   N=          72
 -9.10094656E-02 -2.26448549E-03 -1.94414593E-02  9.06896868E-01  8.41581113E-02
  2.91193887E-01  1.03233520E-01 -2.35694288E-02 -1.02445881E-02  2.54386999E-01
 -2.91251280E-02 -1.08228557E-02 -1.95641683E-02 -8.80200833E-02 -1.53742041E-02
  3.59054818E-02  3.55816408E-01 -1.86571701E-01  4.83467464E-01  4.64363439E-01
  3.94971081E-01 -2.47541539E-01  4.02802016E-01  5.21519581E-03 -1.60194001E-02
 -3.09744272E-02 -4.57071754E-02 -3.10062322E-01 -1.46275566E-01  4.05238425E-01
 -1.58557476E-01  2.91443776E-01  2.13288513E-01  6.91198953E-01  2.85201329E-01
  1.65445639E-02 -3.94933186E-02  6.82824908E-03  4.55243509E-03 -3.18544514E-01
  4.72454144E-01  1.68270032E-01  5.74259060E-01 -1.95703442E-01 -2.30944965E-01