NH3 XYGJOS Freq                                                         
Freq      RXYGJOS-Full                                                6-31G               
Number of atoms                            I                4
Info1-9                                    I   N=           9
          14          12           0           0           0         100
           6           2           2
Full Title                                 C   N=           2
NH3 XYGJOS Freq         
Route                                      C   N=           5
#p RXYGJOS(Full)/6-31G nosymm SCF(VeryTight) Freq           
Charge                                     I                0
Multiplicity                               I                1
Number of electrons                        I               10
Number of alpha electrons                  I                5
Number of beta electrons                   I                5
Number of basis functions                  I               15
Number of independent functions            I               15
Number of point charges in /Mol/           I                0
Number of translation vectors              I                0
Atomic numbers                             I   N=           4
           7           1           1           1
Nuclear charges                            R   N=           4
  7.00000000E+00  1.00000000E+00  1.00000000E+00  1.00000000E+00
Current cartesian coordinates              R   N=          12
  0.00000000E+00  0.00000000E+00  0.00000000E+00  1.88972613E+00  0.00000000E+00
  0.00000000E+00  0.00000000E+00  3.77945227E+00  0.00000000E+00  0.00000000E+00
  0.00000000E+00  2.83458920E+00
Number of symbols in /Mol/                 I                0
Force Field                                I                0
Atom Types                                 C   N=           4
                                                
Int Atom Types                             I   N=           4
           0           0           0           0
MM charges                                 R   N=           4
  0.00000000E+00  0.00000000E+00  0.00000000E+00  0.00000000E+00
Integer atomic weights                     I   N=           4
          14           1           1           1
Real atomic weights                        R   N=           4
  1.40030740E+01  1.00782504E+00  1.00782504E+00  1.00782504E+00
Atom fragment info                         I   N=           4
           0           0           0           0
Atom residue num                           I   N=           4
           0           0           0           0
Nuclear spins                              I   N=           4
           2           1           1           1
Nuclear ZEff                               R   N=           4
 -4.55000000E+00 -1.00000000E+00 -1.00000000E+00 -1.00000000E+00
Nuclear ZNuc                               R   N=           4
  7.00000000E+00  1.00000000E+00  1.00000000E+00  1.00000000E+00
Nuclear QMom                               R   N=           4
  2.04400000E+00  0.00000000E+00  0.00000000E+00  0.00000000E+00
Nuclear GFac                               R   N=           4
  4.03761000E-01  2.79284600E+00  2.79284600E+00  2.79284600E+00
MicOpt                                     I   N=           4
          -1          -1          -1          -1
Number of residues                         I                0
Number of secondary structures             I                0
Number of contracted shells                I                9
Number of primitive shells                 I               22
Pure/Cartesian d shells                    I                1
Pure/Cartesian f shells                    I                0
Highest angular momentum                   I                1
Largest degree of contraction              I                6
Shell types                                I   N=           9
           0          -1          -1           0           0           0
           0           0           0
Number of primitives per shell             I   N=           9
           6           3           1           3           1           3
           1           3           1
Shell to atom map                          I   N=           9
           1           1           1           2           2           3
           3           4           4
Primitive exponents                        R   N=          22
  4.17351146E+03  6.27457911E+02  1.42902093E+02  4.02343293E+01  1.28202129E+01
  4.39043701E+00  1.16263619E+01  2.71627981E+00  7.72218397E-01  2.12031498E-01
  1.87311370E+01  2.82539436E+00  6.40121692E-01  1.61277759E-01  1.87311370E+01
  2.82539436E+00  6.40121692E-01  1.61277759E-01  1.87311370E+01  2.82539436E+00
  6.40121692E-01  1.61277759E-01
Contraction coefficients                   R   N=          22
  1.83477216E-03  1.39946270E-02  6.85865518E-02  2.32240873E-01  4.69069948E-01
  3.60455199E-01 -1.14961182E-01 -1.69117479E-01  1.14585195E+00  1.00000000E+00
  3.34946043E-02  2.34726953E-01  8.13757326E-01  1.00000000E+00  3.34946043E-02
  2.34726953E-01  8.13757326E-01  1.00000000E+00  3.34946043E-02  2.34726953E-01
  8.13757326E-01  1.00000000E+00
P(S=P) Contraction coefficients            R   N=          22
  0.00000000E+00  0.00000000E+00  0.00000000E+00  0.00000000E+00  0.00000000E+00
  0.00000000E+00  6.75797439E-02  3.23907296E-01  7.40895140E-01  1.00000000E+00
  0.00000000E+00  0.00000000E+00  0.00000000E+00  0.00000000E+00  0.00000000E+00
  0.00000000E+00  0.00000000E+00  0.00000000E+00  0.00000000E+00  0.00000000E+00
  0.00000000E+00  0.00000000E+00
Coordinates of each shell                  R   N=          27
  0.00000000E+00  0.00000000E+00  0.00000000E+00  0.00000000E+00  0.00000000E+00
  0.00000000E+00  0.00000000E+00  0.00000000E+00  0.00000000E+00  1.88972613E+00
  0.00000000E+00  0.00000000E+00  1.88972613E+00  0.00000000E+00  0.00000000E+00
  0.00000000E+00  3.77945227E+00  0.00000000E+00  0.00000000E+00  3.77945227E+00
  0.00000000E+00  0.00000000E+00  0.00000000E+00  2.83458920E+00  0.00000000E+00
  0.00000000E+00  2.83458920E+00
Num ILSW                                   I              100
ILSW                                       I   N=         100
           0           1           0           0           2           0
           0           0           0           0         402 67108864000
           0           0           0           0           2           0
           0           0           0           0           1           0
           1           1           0           0           0           0
           0           0      100000           0          -1           0
           0           0           0           0           0           0
           0           0           0           1           1           0
           0           0           1           0           0           0
           0           0           4          52           0           0
           0           0          60           0           0           0
           1         402          -5           0           0           0
           0           0           0           0           0           0
           0           0           0           0           0           0
           0           0           0           0           0           0
           0           0           0           0           0           0
           0           0           0           0
Num RLSW                                   I               52
RLSW                                       R   N=          52
  8.00000000E-01  7.20000000E-01  1.00000000E+00  8.10000000E-01  2.00000000E-01
  0.00000000E+00  0.00000000E+00  1.00000000E+00  0.00000000E+00  0.00000000E+00
  0.00000000E+00  0.00000000E+00  1.00000000E+00  0.00000000E+00  0.00000000E+00
  0.00000000E+00  0.00000000E+00  1.00000000E+00  0.00000000E+00  0.00000000E+00
  0.00000000E+00  0.00000000E+00  1.00000000E+00  0.00000000E+00  0.00000000E+00
  0.00000000E+00  0.00000000E+00  1.00000000E+00  0.00000000E+00  0.00000000E+00
  0.00000000E+00  0.00000000E+00  1.00000000E+00  0.00000000E+00  0.00000000E+00
  0.00000000E+00  0.00000000E+00  0.00000000E+00  0.00000000E+00  4.36400000E-01
  8.00000000E-01  7.20000000E-01  1.00000000E+00  8.10000000E-01  2.26900000E-01
  0.00000000E+00  5.06300000E-01  2.75400000E-01  2.00000000E-01  7.73100000E-01
  0.00000000E+00  0.00000000E+00
MxBond                                     I                1
NBond                                      I   N=           4
           1           1           0           0
IBond                                      I   N=           4
           2           1           0           0
RBond                                      R   N=           4
  1.00000000E+00  1.00000000E+00  0.00000000E+00  0.00000000E+00
Virial Ratio                               R      2.014159182451068E+00
SCF Energy                                 R     -5.599704492127802E+01
MP2 Energy                                 R     -5.612329186628809E+01
Total Energy                               R     -5.612329186628809E+01
Post-SCF wavefunction norm                 R      1.741467882992913E+00
RMS Force                                  R      4.158021030132561E-02
RMS Density                                R      1.782171927736878E-09
NImag                                      I                2
Nuclear derivative order                   I                0
External E-field                           R   N=          35
  0.00000000E+00  0.00000000E+00  0.00000000E+00  0.00000000E+00  0.00000000E+00
  0.00000000E+00  0.00000000E+00  0.00000000E+00  0.00000000E+00  0.00000000E+00
  0.00000000E+00  0.00000000E+00  0.00000000E+00  0.00000000E+00  0.00000000E+00
  0.00000000E+00  0.00000000E+00  0.00000000E+00  0.00000000E+00  0.00000000E+00
  0.00000000E+00  0.00000000E+00  0.00000000E+00  0.00000000E+00  0.00000000E+00
  0.00000000E+00  0.00000000E+00  0.00000000E+00  0.00000000E+00  0.00000000E+00
  0.00000000E+00  0.00000000E+00  0.00000000E+00  0.00000000E+00  0.00000000E+00
IOpCl                                      I                0
IROHF                                      I                0
Alpha Orbital Energies                     R   N=          15
 -1.44170774E+01 -8.24314506E-01 -4.01339211E-01 -3.30962429E-01 -2.97727287E-01
 -1.23045372E-01 -3.62482754E-02  1.18383352E-01  6.61383189E-01  7.24988778E-01
  7.43608270E-01  7.88876442E-01  8.10657687E-01  9.07420362E-01  1.13344222E+00
Alpha MO coefficients                      R   N=         225
  9.95280872E-01  2.90175680E-02  2.18385596E-03  6.36855247E-04  1.19274303E-03
 -1.40558373E-02 -3.30161191E-03 -6.31573773E-04 -1.46084477E-03 -4.76009737E-04
  5.09836829E-03  2.62118330E-05  9.27935188E-04  5.71041850E-04  1.42523760E-03
 -2.00282425E-01  4.39318526E-01  1.69100191E-01  1.08323149E-02  4.15906410E-02
  4.45870127E-01  6.92538809E-02  9.42803844E-03  3.34887957E-02  2.13244484E-01
  2.19194069E-02  1.85164563E-02  1.03589748E-02  5.86986978E-02  1.75718555E-02
  5.71124197E-02 -1.05860394E-01  4.30021575E-01 -2.92490063E-02 -2.22540775E-01
 -2.77262938E-01  1.89090503E-01 -1.82310485E-02 -1.32602572E-01  2.62758904E-01
  2.22329457E-01 -3.77750033E-02 -6.11513295E-02 -1.76002213E-01 -2.15809852E-01
  7.29502046E-02 -1.61107524E-01  2.33490744E-01 -1.18541960E-01  3.88254873E-01
 -3.10412523E-01  1.36892425E-01 -8.20894403E-02  2.64372616E-01  9.80347223E-02
  9.77290061E-02 -9.08136495E-02 -1.57992972E-01  2.09442550E-01  2.74698310E-01
  5.16863602E-02 -1.20568401E-01  1.16455880E-01  4.08966312E-01  9.42856270E-02
 -2.17110420E-01  7.03433900E-02  3.10091827E-01  6.76817151E-02  3.74290713E-02
  6.68195077E-02  2.42064347E-01  3.98465594E-01  4.20040501E-02  6.76903421E-02
  3.17314260E-02 -7.27231870E-02  1.03435519E-02 -4.82817235E-01 -3.86407015E-02
 -1.97385551E-01 -1.56248841E-02 -4.27385853E-01 -4.72875284E-02 -1.65679832E-03
  1.02653151E-01  2.81816914E-01  6.09267286E-01  1.18480225E-02  8.00432423E-02
  4.83595931E-02 -9.47361785E-02 -9.89171403E-03  5.50922704E-02 -4.71588729E-01
 -4.32801725E-01 -5.15106728E-02  4.30096284E-02 -5.26645012E-01 -2.31816631E-03
  1.99181048E-01 -5.73673505E-02 -9.50288806E-02  2.61149086E-01  8.75538195E-01
  5.78528279E-02 -8.95787175E-02 -3.88551472E-01  3.76945281E-02  9.81144797E-02
 -1.01713290E+00 -7.71392389E-01  1.82593175E-02  9.85423752E-02  1.15785512E-01
  1.80736818E+00 -5.26754009E-02 -8.42447303E-02 -8.11658956E-02 -2.07901639E-01
  2.08740698E-02  2.03235112E-02  4.30450055E-01  2.90464510E-01  5.14214606E-01
 -4.61626831E-01 -5.39661833E-01 -3.78405030E-01 -7.11409854E-01  6.75095416E-02
  7.94494159E-02 -3.77570874E-01  4.11737375E-01 -7.09814026E-01  1.02189314E+00
  1.98747895E-02  5.93233446E-02  2.26491919E-01 -7.95054876E-01 -7.37005625E-02
 -4.01196638E-01 -7.40622535E-01  9.47634682E-01  3.74597061E-02  5.66619152E-01
  9.45413485E-02  6.92861732E-02 -3.36760950E-01 -2.72942131E-01  3.44903973E-01
 -3.69220637E-02  2.48694925E-01 -4.31279910E-01 -4.33842131E-01  5.44676077E-01
 -1.79251267E-02  9.93172747E-01  5.15561490E-01 -7.72208354E-01 -5.21276586E-01
 -2.38572049E-01 -2.27334323E-02 -1.53789755E-01 -1.90430027E-01  5.82831115E-01
  3.38720838E-02 -6.07528616E-01  4.36966126E-01 -1.29476417E-01  4.84167715E-01
  6.73844304E-01 -4.65966793E-01  2.07134766E-01 -5.05527167E-01 -2.32781472E-01
  3.67022170E-01  1.76583340E-01 -3.02346311E-01  7.95230641E-01 -7.33242233E-01
  3.20898366E-03 -3.99440269E-02 -1.23298181E-01  2.06999755E-01  1.95842580E-01
  4.52945277E-02  4.51413411E-03 -5.82013556E-02 -3.42557061E-01  2.89880223E-01
 -2.16897078E-01  1.18067750E+00 -1.08461804E+00 -2.92655637E-01  5.49113896E-01
 -4.29991372E-02  4.18854561E-01  6.22315623E-01 -9.87203493E-02 -2.97518152E-01
 -6.83923722E-01 -5.19334836E-01  1.99674573E-01  4.39914293E-01 -1.06058999E+00
  1.38599988E+00  3.41527113E-01 -4.62570986E-01 -2.61760156E-01 -5.37301873E-02
  3.13074413E-02 -1.59400081E+00 -1.61320191E-01 -1.06374490E-01 -2.50649829E-01
  2.53333534E+00  9.05817608E-01  1.95803393E-01  4.75841154E-01 -3.55567961E-01
 -1.03424114E+00  1.16250968E-02 -2.70141925E-01 -5.62812359E-01 -2.13974130E-02
Total SCF Density                          R   N=         120
  2.08390421E+00 -1.66275322E-01  4.91083165E-01  3.18354090E-02 -4.56561026E-02
  5.63196197E-01  1.85683318E-02 -4.46735692E-02  1.84070299E-02  3.64557778E-01
  2.66879020E-02 -6.41084893E-02  2.59445805E-02 -1.00893870E-03  4.21774453E-01
 -3.05981836E-01  6.02017507E-01 -2.83250507E-01 -7.81268384E-02 -1.21519996E-01
  8.38730685E-01  1.45303480E-02 -4.04481533E-02  2.66343292E-01  1.55158965E-02
  4.11550995E-02 -1.58537102E-01  1.28499895E-01  1.29619869E-02 -3.62170361E-02
  2.13961037E-02  2.74366238E-01  3.62818737E-03 -6.51504488E-02  1.55663662E-02
  2.06634551E-01  1.40996722E-02 -4.40909498E-02  3.64965940E-02  1.16123535E-03
  2.79851853E-01 -9.00820207E-02  3.64034696E-02  4.03897369E-03  1.86361541E-01
 -3.81797269E-02  9.10915680E-02  3.52599354E-01 -3.37961493E-03 -1.60293621E-02
 -3.26494333E-02  1.61015783E-01  1.55848224E-03  1.50089901E-03  2.51054840E-01
  4.79300357E-02 -7.51190789E-02  2.59849032E-01  1.89594176E-02 -8.63152898E-03
 -1.93571380E-01  1.23240463E-01  1.76956034E-02  3.20896119E-03  1.50345276E-01
  1.27905293E-01  9.33924693E-05 -4.84057874E-03 -1.22544058E-02  2.22133730E-01
 -6.51806429E-03 -1.12716463E-02 -2.52943686E-03  1.66760505E-01 -3.99238757E-03
 -1.16396920E-02 -1.38599966E-03  1.37224155E-01  8.85190356E-03 -2.30743665E-02
 -3.00577898E-02  3.67178438E-01 -1.94627106E-02 -3.18146473E-02 -8.89484097E-03
  2.75484821E-01 -1.26916056E-02 -2.88682075E-02 -4.35833920E-03  2.26608119E-01
  3.75168527E-01 -7.57993893E-03  1.12570551E-02 -2.39260508E-02 -3.73078514E-03
  2.53774271E-01  1.65950601E-03  4.81737195E-03 -8.12302434E-04  1.67034083E-01
 -2.32488642E-02 -2.91312445E-02 -2.23433664E-03 -9.96384900E-03  1.60106328E-01
  1.82234407E-02 -4.36211324E-02 -3.56118496E-02  3.24653766E-03  3.23588400E-01
 -6.46305352E-02  5.54061175E-03  5.07919850E-03  2.12814858E-01 -4.69919565E-02
 -3.24388561E-02 -1.66627661E-04 -6.09544314E-03  1.98784107E-01  2.53851675E-01
Total MP2 Density                          R   N=         120
  2.08303320E+00 -1.67190020E-01  4.80710951E-01  3.08300673E-02 -4.70750010E-02
  5.53627205E-01  1.36157495E-02 -3.52425426E-02  1.19634885E-02  4.15587767E-01
  2.53520939E-02 -6.57779764E-02  2.48749593E-02 -1.58559440E-04  4.27570050E-01
 -2.93963529E-01  5.71766763E-01 -2.60222219E-01 -5.12998250E-02 -1.01834253E-01
  8.60328227E-01  1.85785394E-02 -4.43973579E-02  2.75102693E-01  1.14146304E-02
  4.03642103E-02 -1.73374565E-01  1.50379308E-01  7.87916611E-03 -2.34859744E-02
  1.52497196E-02  2.85966383E-01  3.04518253E-03 -4.45600096E-02  1.33429777E-02
  2.10696753E-01  1.36736800E-02 -4.29045574E-02  3.46809226E-02  1.07871223E-03
  2.82560589E-01 -8.51721473E-02  3.92052065E-02  3.71241194E-03  1.99153529E-01
 -3.91664339E-02  9.17319709E-02  3.25377349E-01 -3.86881404E-03 -1.69763554E-02
 -2.26979555E-02  1.63659982E-01  2.02422460E-03  9.96193094E-04  2.49639318E-01
  4.03185081E-02 -6.05590198E-02  2.31886439E-01  1.34059429E-02 -8.81357363E-03
 -1.88147148E-01  1.27801574E-01  1.42338396E-02  4.02734044E-03  1.49127931E-01
  1.35343059E-01  1.09678906E-03 -5.87274902E-03 -7.09126757E-03  1.26239621E-01
 -3.64639129E-03 -1.54779390E-02  8.21359268E-04  1.08440293E-01 -1.70638041E-03
 -9.68327380E-03 -1.20494393E-03  1.48403140E-01  1.01946595E-02 -2.49218035E-02
 -2.29403051E-02  2.41856339E-01 -1.44050666E-02 -4.04835167E-02 -4.66782880E-03
  2.01951022E-01 -9.30393005E-03 -2.73041664E-02 -4.57813709E-03  2.37690129E-01
  3.96352665E-01 -8.09854430E-03  1.08551001E-02 -2.21488264E-02 -3.16682957E-03
  2.02074599E-01  3.87839105E-03  5.39289872E-03 -3.25005837E-04  1.48113460E-01
 -2.32174719E-02 -3.01990609E-02 -3.55934087E-03 -1.22422175E-02  1.56195934E-01
  1.74589505E-02 -4.23193887E-02 -3.37472708E-02  1.73028572E-03  2.76219744E-01
 -7.17310565E-02  8.31216495E-03  4.28848530E-03  2.03453661E-01 -4.97794430E-02
 -3.71305738E-02 -2.98097162E-03 -1.04024778E-02  2.05183607E-01  2.88408799E-01
Grdnt Energy                               R     -5.612329186628809E+01
Grdnt NVar                                 I               12
Grdnt IGetFC                               I                4
Internal Forces                            R   N=          12
 -4.04469147E-02  4.16026109E-02  8.46211703E-02  4.56537862E-02  1.48294787E-03
 -8.92294994E-03  7.42294733E-04 -4.51751072E-02  1.56660557E-03 -5.94916620E-03
  2.08954847E-03 -7.72648260E-02
Internal Force Constants                   R   N=          78
  5.55509239E-01  2.54853822E-03 -2.26902250E-02 -5.10060234E-03 -1.44433751E-03
 -2.36001870E-02 -5.00697644E-01  5.14035089E-03  1.85145442E-02  5.08527766E-01
 -8.70429777E-03  4.04716730E-03  1.34648492E-03 -1.70866953E-03 -2.39714188E-03
 -1.43924359E-02  1.48657787E-03  2.75248691E-04 -1.45932707E-02 -7.07827594E-04
  1.98467556E-02 -1.53628574E-02 -8.67918872E-03  6.74044980E-04 -1.24815973E-03
  1.08833567E-02 -3.54637857E-04  1.73994043E-02  4.82331999E-03  5.53500268E-02
  5.24605464E-03 -2.86928225E-03 -4.02704691E-03 -2.01763072E-04 -1.81949234E-03
 -5.03359050E-02  9.99412909E-04 -5.14049074E-03 -1.48711054E-02 -4.22812624E-04
 -5.77924687E-04 -8.23099621E-04 -2.88398127E-04 -3.26560707E-04  1.64876090E-02
 -3.94487380E-02  9.90299604E-04 -1.40879868E-02 -6.58196254E-03 -4.70389441E-04
  2.93403445E-02 -7.88387150E-04 -1.34545403E-04 -2.88202159E-04  4.68190877E-02
  1.33243956E-03 -3.67069690E-02 -5.14820206E-03 -5.62399115E-04  2.37702149E-03
 -5.76987208E-04 -3.84675686E-04 -9.87074809E-04  6.04497614E-03 -3.85364759E-04
  3.53170223E-02  1.84936253E-02  5.09825038E-03  3.81960437E-02 -3.49846086E-03
 -6.07326424E-05 -1.92989047E-02 -3.10089961E-05 -4.71773086E-03 -7.93404014E-04
 -1.49641555E-02 -3.19786873E-04 -1.81037350E-02
Mulliken Charges                           R   N=           4
 -4.42544030E-01  2.82170133E-01  2.62965802E-02  1.34077317E-01
ONIOM Charges                              I   N=          16
           0           0           0           0           0           0
           0           0           0           0           0           0
           0           0           0           0
ONIOM Multiplicities                       I   N=          16
           1           0           0           0           0           0
           0           0           0           0           0           0
           0           0           0           0
Atom Layers                                I   N=           4
           1           1           1           1
Atom Modifiers                             I   N=           4
           0           0           0           0
Force Field                                I                0
Atom Modified Types                        C   N=           4
                                                
Int Atom Modified Types                    I   N=           4
           0           0           0           0
Link Atoms                                 I   N=           4
           0           0           0           0
Atom Modified MM Charges                   R   N=           4
  0.00000000E+00  0.00000000E+00  0.00000000E+00  0.00000000E+00
Link Distances                             R   N=          16
  0.00000000E+00  0.00000000E+00  0.00000000E+00  0.00000000E+00  0.00000000E+00
  0.00000000E+00  0.00000000E+00  0.00000000E+00  0.00000000E+00  0.00000000E+00
  0.00000000E+00  0.00000000E+00  0.00000000E+00  0.00000000E+00  0.00000000E+00
  0.00000000E+00
Cartesian Gradient                         R   N=          12
  4.04469147E-02 -4.16026109E-02 -8.46211703E-02 -4.56537862E-02 -1.48294787E-03
  8.92294994E-03 -7.42294733E-04  4.51751072E-02 -1.56660557E-03  5.94916620E-03
 -2.08954847E-03  7.72648260E-02
Cartesian Force Constants                  R   N=          78
  5.55509239E-01  2.54853822E-03 -2.26902250E-02 -5.10060234E-03 -1.44433751E-03
 -2.36001870E-02 -5.00697644E-01  5.14035089E-03  1.85145442E-02  5.08527766E-01
 -8.70429777E-03  4.04716730E-03  1.34648492E-03 -1.70866953E-03 -2.39714188E-03
 -1.43924359E-02  1.48657787E-03  2.75248691E-04 -1.45932707E-02 -7.07827594E-04
  1.98467556E-02 -1.53628574E-02 -8.67918872E-03  6.74044980E-04 -1.24815973E-03
  1.08833567E-02 -3.54637857E-04  1.73994043E-02  4.82331999E-03  5.53500268E-02
  5.24605464E-03 -2.86928225E-03 -4.02704691E-03 -2.01763072E-04 -1.81949234E-03
 -5.03359050E-02  9.99412909E-04 -5.14049074E-03 -1.48711054E-02 -4.22812624E-04
 -5.77924687E-04 -8.23099621E-04 -2.88398127E-04 -3.26560707E-04  1.64876090E-02
 -3.94487380E-02  9.90299604E-04 -1.40879868E-02 -6.58196254E-03 -4.70389441E-04
  2.93403445E-02 -7.88387150E-04 -1.34545403E-04 -2.88202159E-04  4.68190877E-02
  1.33243956E-03 -3.67069690E-02 -5.14820206E-03 -5.62399115E-04  2.37702149E-03
 -5.76987208E-04 -3.84675686E-04 -9.87074809E-04  6.04497614E-03 -3.85364759E-04
  3.53170223E-02  1.84936253E-02  5.09825038E-03  3.81960437E-02 -3.49846086E-03
 -6.07326424E-05 -1.92989047E-02 -3.10089961E-05 -4.71773086E-03 -7.93404014E-04
 -1.49641555E-02 -3.19786873E-04 -1.81037350E-02
Dipole Moment                              R   N=           3
  7.12015151E-01  1.74512911E-01  4.03725577E-01
Dipole Derivatives                         R   N=          36
  5.82593482E-02  6.26356751E-02  1.58838838E-01  5.29683546E-03 -1.37004504E-01
  1.38709186E-02  2.45278091E-02 -2.66055686E-02  1.39012038E-01 -2.20968677E-01
 -3.96882092E-03 -1.18479978E-02  3.51851458E-04  2.04007171E-01  1.88851890E-02
 -3.91023613E-02  4.15844512E-02  1.42130235E-01  4.63550142E-02 -8.63881672E-02
  9.44490765E-03 -8.39721787E-03 -1.67136914E-01 -3.14851473E-02  2.06170128E-03
 -3.17094100E-02  4.52178033E-02  1.16354315E-01  2.77213130E-02 -1.56435748E-01
  2.74853095E-03  1.00134247E-01 -1.27096035E-03  1.25128509E-02  1.67305274E-02
 -3.26360077E-01
Polarizability                             R   N=           6
  8.72532623E+00 -9.57250702E-01  2.56610204E+01 -5.98249294E-01 -3.35747480E+00
  1.88286393E+01
QEq coupling tensors                       R   N=          24
  6.37226233E-01  9.85715767E-02 -3.86074733E-01  2.04175805E-01  1.67963211E-03
 -2.51151500E-01 -4.79805175E-01  8.11667302E-03  2.40214683E-01  2.31179431E-02
  2.99044550E-04  2.39590492E-01 -6.87547481E-03  8.00712409E-03  1.31346174E-02
  4.15869618E-04  3.28424480E-03 -6.25914255E-03  1.18231890E-02  8.27855195E-04
  1.58410752E-02  1.95658039E-02  2.14427114E-03 -2.76642642E-02
