NH3 XYGJOS Freq                                                         
Freq      RXYGJOS-Full                                                6-31G               
Number of atoms                            I                4
Info1-9                                    I   N=           9
          14          12           0           0           0         100
           6           2           2
Full Title                                 C   N=           2
NH3 XYGJOS Freq         
Route                                      C   N=           5
#p RXYGJOS(Full)/6-31G nosymm SCF(VeryTight) Freq           
Charge                                     I                0
Multiplicity                               I                1
Number of electrons                        I               10
Number of alpha electrons                  I                5
Number of beta electrons                   I                5
Number of basis functions                  I               15
Number of independent functions            I               15
Number of point charges in /Mol/           I                0
Number of translation vectors              I                0
Atomic numbers                             I   N=           4
           7           1           1           1
Nuclear charges                            R   N=           4
  7.00000000E+00  1.00000000E+00  1.00000000E+00  1.00000000E+00
Current cartesian coordinates              R   N=          12
  0.00000000E+00  0.00000000E+00  0.00000000E+00  2.83458920E+00  0.00000000E+00
  3.77945227E-01  1.88972613E-01  2.26767136E+00  0.00000000E+00  0.00000000E+00
  0.00000000E+00  1.88972613E+00
Number of symbols in /Mol/                 I                0
Force Field                                I                0
Atom Types                                 C   N=           4
                                                
Int Atom Types                             I   N=           4
           0           0           0           0
MM charges                                 R   N=           4
  0.00000000E+00  0.00000000E+00  0.00000000E+00  0.00000000E+00
Integer atomic weights                     I   N=           4
          14           1           1           1
Real atomic weights                        R   N=           4
  1.40030740E+01  1.00782504E+00  1.00782504E+00  1.00782504E+00
Atom fragment info                         I   N=           4
           0           0           0           0
Atom residue num                           I   N=           4
           0           0           0           0
Nuclear spins                              I   N=           4
           2           1           1           1
Nuclear ZEff                               R   N=           4
 -4.55000000E+00 -1.00000000E+00 -1.00000000E+00 -1.00000000E+00
Nuclear ZNuc                               R   N=           4
  7.00000000E+00  1.00000000E+00  1.00000000E+00  1.00000000E+00
Nuclear QMom                               R   N=           4
  2.04400000E+00  0.00000000E+00  0.00000000E+00  0.00000000E+00
Nuclear GFac                               R   N=           4
  4.03761000E-01  2.79284600E+00  2.79284600E+00  2.79284600E+00
MicOpt                                     I   N=           4
          -1          -1          -1          -1
Number of residues                         I                0
Number of secondary structures             I                0
Number of contracted shells                I                9
Number of primitive shells                 I               22
Pure/Cartesian d shells                    I                1
Pure/Cartesian f shells                    I                0
Highest angular momentum                   I                1
Largest degree of contraction              I                6
Shell types                                I   N=           9
           0          -1          -1           0           0           0
           0           0           0
Number of primitives per shell             I   N=           9
           6           3           1           3           1           3
           1           3           1
Shell to atom map                          I   N=           9
           1           1           1           2           2           3
           3           4           4
Primitive exponents                        R   N=          22
  4.17351146E+03  6.27457911E+02  1.42902093E+02  4.02343293E+01  1.28202129E+01
  4.39043701E+00  1.16263619E+01  2.71627981E+00  7.72218397E-01  2.12031498E-01
  1.87311370E+01  2.82539436E+00  6.40121692E-01  1.61277759E-01  1.87311370E+01
  2.82539436E+00  6.40121692E-01  1.61277759E-01  1.87311370E+01  2.82539436E+00
  6.40121692E-01  1.61277759E-01
Contraction coefficients                   R   N=          22
  1.83477216E-03  1.39946270E-02  6.85865518E-02  2.32240873E-01  4.69069948E-01
  3.60455199E-01 -1.14961182E-01 -1.69117479E-01  1.14585195E+00  1.00000000E+00
  3.34946043E-02  2.34726953E-01  8.13757326E-01  1.00000000E+00  3.34946043E-02
  2.34726953E-01  8.13757326E-01  1.00000000E+00  3.34946043E-02  2.34726953E-01
  8.13757326E-01  1.00000000E+00
P(S=P) Contraction coefficients            R   N=          22
  0.00000000E+00  0.00000000E+00  0.00000000E+00  0.00000000E+00  0.00000000E+00
  0.00000000E+00  6.75797439E-02  3.23907296E-01  7.40895140E-01  1.00000000E+00
  0.00000000E+00  0.00000000E+00  0.00000000E+00  0.00000000E+00  0.00000000E+00
  0.00000000E+00  0.00000000E+00  0.00000000E+00  0.00000000E+00  0.00000000E+00
  0.00000000E+00  0.00000000E+00
Coordinates of each shell                  R   N=          27
  0.00000000E+00  0.00000000E+00  0.00000000E+00  0.00000000E+00  0.00000000E+00
  0.00000000E+00  0.00000000E+00  0.00000000E+00  0.00000000E+00  2.83458920E+00
  0.00000000E+00  3.77945227E-01  2.83458920E+00  0.00000000E+00  3.77945227E-01
  1.88972613E-01  2.26767136E+00  0.00000000E+00  1.88972613E-01  2.26767136E+00
  0.00000000E+00  0.00000000E+00  0.00000000E+00  1.88972613E+00  0.00000000E+00
  0.00000000E+00  1.88972613E+00
Num ILSW                                   I              100
ILSW                                       I   N=         100
           0           1           0           0           2           0
           0           0           0           0         402 67108864000
           0           0           0           0           2           0
           0           0           0           0           1           0
           1           1           0           0           0           0
           0           0      100000           0          -1           0
           0           0           0           0           0           0
           0           0           0           1           1           0
           0           0           1           0           0           0
           0           0           4          52           0           0
           0           0          60           0           0           0
           1         402          -5           0           0           0
           0           0           0           0           0           0
           0           0           0           0           0           0
           0           0           0           0           0           0
           0           0           0           0           0           0
           0           0           0           0
Num RLSW                                   I               52
RLSW                                       R   N=          52
  8.00000000E-01  7.20000000E-01  1.00000000E+00  8.10000000E-01  2.00000000E-01
  0.00000000E+00  0.00000000E+00  1.00000000E+00  0.00000000E+00  0.00000000E+00
  0.00000000E+00  0.00000000E+00  1.00000000E+00  0.00000000E+00  0.00000000E+00
  0.00000000E+00  0.00000000E+00  1.00000000E+00  0.00000000E+00  0.00000000E+00
  0.00000000E+00  0.00000000E+00  1.00000000E+00  0.00000000E+00  0.00000000E+00
  0.00000000E+00  0.00000000E+00  1.00000000E+00  0.00000000E+00  0.00000000E+00
  0.00000000E+00  0.00000000E+00  1.00000000E+00  0.00000000E+00  0.00000000E+00
  0.00000000E+00  0.00000000E+00  0.00000000E+00  0.00000000E+00  4.36400000E-01
  8.00000000E-01  7.20000000E-01  1.00000000E+00  8.10000000E-01  2.26900000E-01
  0.00000000E+00  5.06300000E-01  2.75400000E-01  2.00000000E-01  7.73100000E-01
  0.00000000E+00  0.00000000E+00
MxBond                                     I                1
NBond                                      I   N=           4
           1           0           0           1
IBond                                      I   N=           4
           4           0           0           1
RBond                                      R   N=           4
  1.00000000E+00  0.00000000E+00  0.00000000E+00  1.00000000E+00
Virial Ratio                               R      2.011631699779078E+00
SCF Energy                                 R     -5.613661609511432E+01
MP2 Energy                                 R     -5.622230954596934E+01
Total Energy                               R     -5.622230954596934E+01
Post-SCF wavefunction norm                 R      1.550564891460313E+00
RMS Force                                  R      5.170763012337554E-02
RMS Density                                R      6.598916778050365E-09
NImag                                      I                1
Nuclear derivative order                   I                0
External E-field                           R   N=          35
  0.00000000E+00  0.00000000E+00  0.00000000E+00  0.00000000E+00  0.00000000E+00
  0.00000000E+00  0.00000000E+00  0.00000000E+00  0.00000000E+00  0.00000000E+00
  0.00000000E+00  0.00000000E+00  0.00000000E+00  0.00000000E+00  0.00000000E+00
  0.00000000E+00  0.00000000E+00  0.00000000E+00  0.00000000E+00  0.00000000E+00
  0.00000000E+00  0.00000000E+00  0.00000000E+00  0.00000000E+00  0.00000000E+00
  0.00000000E+00  0.00000000E+00  0.00000000E+00  0.00000000E+00  0.00000000E+00
  0.00000000E+00  0.00000000E+00  0.00000000E+00  0.00000000E+00  0.00000000E+00
IOpCl                                      I                0
IROHF                                      I                0
Alpha Orbital Energies                     R   N=          15
 -1.43846778E+01 -8.50795948E-01 -4.29741807E-01 -3.57878488E-01 -3.13816146E-01
 -4.07937049E-02  5.09669770E-02  1.31208933E-01  6.51364924E-01  7.08392092E-01
  7.63683705E-01  7.75768361E-01  8.14213631E-01  9.31965484E-01  1.36421790E+00
Alpha MO coefficients                      R   N=         225
  9.95289238E-01  2.99455331E-02  1.15886260E-03  1.56926113E-03  2.14729808E-03
 -1.62410589E-02 -1.56159610E-03 -2.43222935E-03 -3.51794720E-03  8.35736014E-04
  1.18027908E-03  5.56656051E-04  2.77769518E-03 -9.79569229E-05  4.90745213E-03
 -1.95409686E-01  4.15020807E-01  3.76269881E-02  8.06011213E-02  1.47863074E-01
  4.48162874E-01  3.34294530E-02  5.38851626E-02  7.06682851E-02  5.46038143E-02
  1.51538059E-02  1.12259893E-01  1.13828469E-02  1.89225011E-01  1.16405074E-02
  1.98992913E-02 -3.07908559E-02 -5.35917411E-02 -3.10255416E-01  3.71727626E-01
 -1.18602653E-01 -3.16008893E-02 -1.61933721E-01  1.54754447E-01 -2.32628479E-02
 -3.06459894E-02 -2.38311731E-01 -2.24571002E-01  2.60794212E-01  2.19494417E-01
 -2.16333866E-02  3.28031268E-02  3.51862950E-01 -2.43551644E-01 -1.63355287E-01
  1.20914324E-01  2.34797067E-01 -1.44360538E-01 -8.11409395E-02  2.46772907E-01
  3.37810220E-01 -1.30499095E-01 -1.36850888E-01 -9.83805396E-02 -9.22377663E-02
 -1.07379728E-01  2.37008039E-01 -2.54021060E-01 -2.71444129E-01 -2.87751079E-01
  4.58586994E-01 -1.91094779E-01 -1.88936172E-01 -1.88665472E-01 -1.25515944E-01
 -1.68407582E-01 -1.18431792E-01 -1.41568426E-01 -1.03360047E-01 -1.17118053E-01
  5.67993071E-02 -1.02979831E-01 -4.60314932E-01 -4.16909756E-02 -4.48226538E-02
 -5.53352697E-01 -5.30519446E-01 -8.51941884E-02 -1.02476785E-01  2.44515727E-01
  8.24848641E-01  9.13323146E-03  2.23578191E-01 -1.59609880E-02  2.29479649E-01
  6.00140778E-02 -9.09704032E-02  1.21048472E-01 -4.06662325E-01 -6.87454857E-02
 -8.27681542E-01  1.11815437E-01 -6.25089679E-01 -1.71354324E-01 -1.12479971E-01
 -2.95675917E-01  1.87198985E-01  1.20576228E+00  2.28395673E-02  4.81675852E-01
  3.57579645E-02 -4.19129668E-02  8.72740029E-02  1.83870217E-01 -3.80038615E-01
 -7.54879226E-01  9.47809067E-02  2.79954277E-01 -7.76503377E-01 -5.56434273E-02
 -1.63622748E-01 -9.71065000E-02 -5.55256355E-01  1.24723340E-01  1.77787042E+00
 -1.56635404E-02 -1.46192969E-01 -3.19392775E-01 -2.38056817E-01 -4.75417346E-01
  7.25286009E-01  4.59342002E-01  1.99227147E-01  8.57223996E-01  5.70395774E-01
 -8.17249655E-01  5.29464767E-01 -6.34244940E-01 -4.51593957E-01  4.54173922E-02
  2.12977837E-03  7.12599744E-03 -5.19915610E-01 -4.11512754E-01  1.07209725E-02
 -2.36628304E-02  7.11617805E-01  6.09490110E-01 -4.47430568E-01  4.13968845E-01
 -6.99555348E-01 -5.15971546E-01  3.12047122E-01  6.07625683E-01 -8.99397022E-02
 -3.51384715E-02  2.93636588E-01  5.69464316E-01 -6.24061060E-01 -3.60989293E-01
 -6.58898303E-02 -7.79425445E-01  9.26903484E-01  5.40297580E-01 -9.74573176E-02
  5.29844013E-01 -3.18099774E-01 -1.48341396E-01 -3.67703621E-02 -3.30502924E-01
  4.13050407E-03  2.05486660E-01 -3.41815749E-01 -3.83697826E-01 -5.25169748E-02
 -2.91558388E-01  2.78737630E-01  4.38245855E-01 -1.92068344E-01 -8.68418530E-01
  9.46549435E-01  6.80111424E-01 -9.28254872E-01  2.84781646E-01  3.64682439E-02
 -4.84036211E-02  6.59799208E-01 -3.02440143E-01  4.25483405E-01 -5.62576193E-01
 -7.51126415E-01  3.40576197E-01 -6.59818923E-01  8.63154835E-01 -3.65856347E-01
  2.27362043E-01 -5.39312348E-01  1.12427135E+00  1.11611807E-02 -5.63502476E-01
 -5.98328707E-02  7.79571359E-01 -2.14986735E-01 -1.90944519E-01  6.11586405E-01
 -1.12788468E+00  3.34766865E-01  3.52362504E-01 -6.08136479E-01 -4.24713508E-02
 -1.79093986E-01 -2.12819305E-01 -5.28561023E-02 -1.00216737E+00  1.53495042E+00
 -7.39193714E-03 -1.53012801E+00 -2.43284693E-01 -1.69261425E-01 -8.32278815E-02
  2.77377816E+00  5.21921245E-01  6.98159236E-01  9.28425633E-01 -6.05309706E-01
 -4.78199882E-02 -6.66641849E-01 -3.50977502E-01 -6.63345980E-01 -7.73828434E-01
Total SCF Density                          R   N=         120
  2.08236001E+00 -1.56133673E-01  4.62671875E-01  2.47980259E-02 -6.27240141E-02
  3.85246884E-01  2.81084192E-02 -5.85450634E-02  5.83489910E-03  4.71513490E-01
  3.01459656E-02 -4.71462817E-02  2.52152172E-03  2.89691594E-02  5.39070321E-01
 -3.15917518E-01  6.03635239E-01 -1.01490326E-01 -1.62071141E-01 -2.59133827E-01
  8.80205255E-01  1.34494712E-02 -4.55774934E-02  2.68216147E-01  1.43653844E-02
  1.96501831E-02 -8.09762011E-02  1.87530920E-01  1.44762028E-02 -4.44763233E-02
  1.58033398E-02  2.82050126E-01  5.14316197E-02 -1.21408656E-01  1.82633690E-02
  1.71337797E-01  1.55661234E-02 -4.58369399E-02  2.74718208E-02  5.73023220E-02
  2.71023347E-01 -1.65913769E-01  2.89576991E-02  5.22316935E-02  1.42267667E-01
 -4.32379037E-03  3.49932790E-03  2.44032356E-01 -2.88230329E-02 -9.53214328E-03
 -1.00947072E-03  1.68972387E-01 -1.04048508E-02  7.82585569E-03  1.60349110E-01
  1.67585327E-02 -4.31292282E-02  3.27711809E-01 -5.16592697E-02 -3.17447203E-02
 -5.19530646E-02  2.25943678E-01 -2.23437349E-02  1.37319077E-03  2.12083203E-01
  2.87294131E-01 -2.11691203E-02  4.31892350E-02  2.32512077E-03  2.93835072E-01
 -3.31803455E-02  1.69511790E-02  6.54734545E-03  1.71706926E-01  7.96852968E-03
 -1.13289394E-02 -3.02679913E-02  2.00902355E-01  2.84672299E-02 -5.26399215E-02
  5.50552871E-04  2.84708752E-01 -3.73967898E-02 -9.95553960E-02  4.78725576E-03
  1.66950986E-01  7.70911336E-03 -2.03079355E-02 -3.06609201E-02  1.78844814E-01
  1.78678409E-01 -3.73143948E-02  8.55499096E-02 -3.04348007E-02 -2.72880047E-02
  3.41473082E-01 -1.08417194E-02 -1.05267685E-02  3.39200150E-03  1.62429554E-01
 -1.40776171E-02 -4.19045386E-02 -3.16566164E-02 -5.66343739E-02  2.48363530E-01
  4.30979392E-02 -6.51280382E-02 -2.80480086E-02 -2.57954504E-02  2.64184501E-01
 -1.71514324E-01 -1.16625100E-02  1.03019399E-03  1.28706959E-01 -2.50558933E-02
 -3.59594510E-02 -5.01823093E-02 -3.98858182E-02  1.61249593E-01  1.41123655E-01
Total MP2 Density                          R   N=         120
  2.08145004E+00 -1.58977487E-01  4.58241962E-01  2.36753208E-02 -6.61885727E-02
  3.98509682E-01  2.75539434E-02 -6.29310567E-02  6.29871972E-03  4.74458799E-01
  2.91469601E-02 -4.95869975E-02  4.20349655E-03  2.97051229E-02  5.38483152E-01
 -2.99269918E-01  5.72079036E-01 -8.11718378E-02 -1.40873395E-01 -2.33416022E-01
  8.72841080E-01  1.22816330E-02 -4.44489657E-02  2.76503916E-01  1.44221255E-02
  1.95463234E-02 -6.98537733E-02  2.03797598E-01  1.57252586E-02 -4.63534993E-02
  1.67192608E-02  2.90633525E-01  5.14403447E-02 -1.20094059E-01  2.04359132E-02
  1.91726062E-01  1.83556377E-02 -4.84632438E-02  2.92928153E-02  5.84567578E-02
  2.81251950E-01 -1.71528956E-01  3.22585942E-02  5.83851573E-02  1.64682342E-01
 -5.13613033E-03  2.33493544E-03  1.98489379E-01 -2.56811830E-02 -1.00073036E-02
  5.87188985E-03  1.51224880E-01 -8.67498299E-03  8.50562456E-03  1.56604104E-01
  1.58148777E-02 -4.33473933E-02  2.83258661E-01 -4.73353635E-02 -3.08466222E-02
 -5.04232154E-02  2.14633206E-01 -2.03837803E-02  3.05158619E-03  2.12864575E-01
  3.06985672E-01 -2.21177277E-02  4.16937230E-02  2.70144225E-04  2.62875996E-01
 -3.32576781E-02  2.70602563E-02  6.15013523E-03  1.67431667E-01  7.47198770E-03
 -1.33014809E-02 -3.32433636E-02  1.96118051E-01  2.40147732E-02 -4.58210343E-02
 -7.92083864E-04  2.54173325E-01 -3.80064091E-02 -9.13769896E-02  4.63261174E-03
  1.65570085E-01  8.35859795E-03 -2.23609320E-02 -3.44821046E-02  1.76690965E-01
  1.88536725E-01 -3.81609083E-02  8.53233832E-02 -3.04671824E-02 -2.88821049E-02
  3.18565351E-01  1.36153703E-03 -1.12504906E-02  1.85334034E-03  1.64296311E-01
 -1.62946110E-02 -4.55442189E-02 -3.28257473E-02 -5.92096107E-02  2.47234180E-01
  3.52469067E-02 -5.18135038E-02 -2.73813307E-02 -2.78875898E-02  2.33521309E-01
 -1.55617619E-01 -1.28457669E-02 -4.53537452E-04  1.27650949E-01 -2.72563127E-02
 -4.05096660E-02 -5.19497559E-02 -4.66476361E-02  1.56061859E-01  1.40721692E-01
Grdnt Energy                               R     -5.622230954596934E+01
Grdnt NVar                                 I               12
Grdnt IGetFC                               I                4
Internal Forces                            R   N=          12
  1.07162551E-01  8.80253218E-02 -4.04170478E-03 -7.25261423E-02 -7.00634334E-03
 -2.23442799E-02 -1.38182534E-02 -6.07510308E-02 -1.80577585E-02 -2.08181555E-02
 -2.02679477E-02  4.44437432E-02
Internal Force Constants                   R   N=          78
  4.19789289E-04 -8.63683101E-03  1.31255615E-01 -3.06201823E-02 -2.11155829E-02
  5.68430541E-01  4.48161402E-02  9.81487536E-03  2.56902340E-02 -4.83153991E-03
 -6.54079621E-03 -3.76312251E-02  5.16609715E-03 -1.25684087E-02  4.41975673E-02
  4.93978060E-03  6.12284207E-03 -3.37492054E-02 -2.67797028E-02 -3.91956929E-03
  3.97944059E-02 -4.62298117E-02 -6.92493969E-03  9.00989660E-03 -1.25665906E-02
  2.25393790E-02 -4.86826243E-03  5.43664290E-02  9.08177317E-03 -8.57111968E-02
  3.06514906E-02  6.89247639E-04 -8.77373560E-03  3.26694807E-04 -7.04685697E-03
  1.20105626E-01  3.99144606E-03 -1.46620351E-02 -5.02052866E-02 -3.74591989E-04
 -6.49288611E-04  3.28172189E-04 -3.38075858E-03 -3.07734087E-02  6.50885346E-02
  9.93882187E-04  5.74689534E-03 -4.07994837E-03 -2.74180097E-02 -3.43017401E-03
  2.67081846E-02  4.42997330E-03 -2.72416384E-03 -2.36095493E-04  2.19941542E-02
  6.09585405E-03 -7.91319299E-03 -1.47020049E-02  2.06428574E-03  2.20739342E-03
 -2.52996759E-03 -8.56758229E-03 -2.56206936E-02  4.60847324E-02  4.07442505E-04
  3.13264932E-02  2.16889556E-02  2.96547759E-02 -4.84476049E-01  1.46406074E-03
 -5.97239256E-04 -6.37337269E-03 -7.60875591E-04 -2.04776755E-04 -1.52114202E-02
 -2.23921408E-02 -2.88527599E-02  5.06060842E-01
Mulliken Charges                           R   N=           4
 -5.83795757E-01  9.54393594E-02  2.15320837E-01  2.73035561E-01
ONIOM Charges                              I   N=          16
           0           0           0           0           0           0
           0           0           0           0           0           0
           0           0           0           0
ONIOM Multiplicities                       I   N=          16
           1           0           0           0           0           0
           0           0           0           0           0           0
           0           0           0           0
Atom Layers                                I   N=           4
           1           1           1           1
Atom Modifiers                             I   N=           4
           0           0           0           0
Force Field                                I                0
Atom Modified Types                        C   N=           4
                                                
Int Atom Modified Types                    I   N=           4
           0           0           0           0
Link Atoms                                 I   N=           4
           0           0           0           0
Atom Modified MM Charges                   R   N=           4
  0.00000000E+00  0.00000000E+00  0.00000000E+00  0.00000000E+00
Link Distances                             R   N=          16
  0.00000000E+00  0.00000000E+00  0.00000000E+00  0.00000000E+00  0.00000000E+00
  0.00000000E+00  0.00000000E+00  0.00000000E+00  0.00000000E+00  0.00000000E+00
  0.00000000E+00  0.00000000E+00  0.00000000E+00  0.00000000E+00  0.00000000E+00
  0.00000000E+00
Cartesian Gradient                         R   N=          12
 -1.07162551E-01 -8.80253218E-02  4.04170478E-03  7.25261423E-02  7.00634334E-03
  2.23442799E-02  1.38182534E-02  6.07510308E-02  1.80577585E-02  2.08181555E-02
  2.02679477E-02 -4.44437432E-02
Cartesian Force Constants                  R   N=          78
  4.19789289E-04 -8.63683101E-03  1.31255615E-01 -3.06201823E-02 -2.11155829E-02
  5.68430541E-01  4.48161402E-02  9.81487536E-03  2.56902340E-02 -4.83153991E-03
 -6.54079621E-03 -3.76312251E-02  5.16609715E-03 -1.25684087E-02  4.41975673E-02
  4.93978060E-03  6.12284207E-03 -3.37492054E-02 -2.67797028E-02 -3.91956929E-03
  3.97944059E-02 -4.62298117E-02 -6.92493969E-03  9.00989660E-03 -1.25665906E-02
  2.25393790E-02 -4.86826243E-03  5.43664290E-02  9.08177317E-03 -8.57111968E-02
  3.06514906E-02  6.89247639E-04 -8.77373560E-03  3.26694807E-04 -7.04685697E-03
  1.20105626E-01  3.99144606E-03 -1.46620351E-02 -5.02052866E-02 -3.74591989E-04
 -6.49288611E-04  3.28172189E-04 -3.38075858E-03 -3.07734087E-02  6.50885346E-02
  9.93882187E-04  5.74689534E-03 -4.07994837E-03 -2.74180097E-02 -3.43017401E-03
  2.67081846E-02  4.42997330E-03 -2.72416384E-03 -2.36095493E-04  2.19941542E-02
  6.09585405E-03 -7.91319299E-03 -1.47020049E-02  2.06428574E-03  2.20739342E-03
 -2.52996759E-03 -8.56758229E-03 -2.56206936E-02  4.60847324E-02  4.07442505E-04
  3.13264932E-02  2.16889556E-02  2.96547759E-02 -4.84476049E-01  1.46406074E-03
 -5.97239256E-04 -6.37337269E-03 -7.60875591E-04 -2.04776755E-04 -1.52114202E-02
 -2.23921408E-02 -2.88527599E-02  5.06060842E-01
Dipole Moment                              R   N=           3
  3.53100154E-01  5.87788882E-01  7.37822244E-01
Dipole Derivatives                         R   N=          36
  2.12256116E-02  3.40562070E-02  6.28973594E-02  5.63513535E-02  4.01236799E-02
  6.50469168E-02  1.51846921E-01  1.44318483E-01 -5.24256786E-02 -2.91393241E-01
  2.49663777E-02 -2.43419309E-02 -1.05865391E-01  9.17300045E-02 -2.01221852E-03
 -2.05187470E-01  1.93368290E-02  8.35416516E-02  1.27966938E-01 -6.59231360E-02
 -1.44674640E-04  1.30966754E-02 -2.98613999E-01  2.84191566E-02  1.27023717E-02
 -1.71109530E-01  1.82653592E-01  1.42200691E-01  6.90055130E-03 -3.84107539E-02
  3.64173621E-02  1.66760314E-01 -9.14538549E-02  4.06381768E-02  7.45421813E-03
 -2.13769565E-01
Polarizability                             R   N=           6
  1.88048080E+01 -8.91018373E-01  1.26074020E+01  1.15411786E+00 -5.93287151E-01
  8.70481305E+00
QEq coupling tensors                       R   N=          24
 -5.11213259E-01  6.05801654E-02  3.55827034E-02  4.80460413E-02  2.44642222E-01
  4.75630556E-01 -3.24540520E-02  1.58324222E-02  1.45595893E-02  1.77331339E-02
  3.84684260E-03  1.78944627E-02  7.89244851E-02 -3.10906474E-03 -1.51874954E-01
  3.15274057E-03  3.39975025E-02  7.29504686E-02  2.39721391E-01  5.48919479E-04
  2.40010469E-01  3.25562425E-02  3.59758040E-02 -4.79731860E-01
