NH3 HF Frequency                                                        
Freq      RHF                                                         6-31G               
Number of atoms                            I                4
Info1-9                                    I   N=           9
          11          11           0           0           0         100
           6           1           2
Full Title                                 C   N=           2
NH3 HF Frequency        
Route                                      C   N=           4
#p RHF/6-31G nosymm SCF(VeryTight) Freq         
Charge                                     I                0
Multiplicity                               I                1
Number of electrons                        I               10
Number of alpha electrons                  I                5
Number of beta electrons                   I                5
Number of basis functions                  I               15
Number of independent functions            I               15
Number of point charges in /Mol/           I                0
Number of translation vectors              I                0
Atomic numbers                             I   N=           4
           7           1           1           1
Nuclear charges                            R   N=           4
  7.00000000E+00  1.00000000E+00  1.00000000E+00  1.00000000E+00
Current cartesian coordinates              R   N=          12
  0.00000000E+00  0.00000000E+00  0.00000000E+00  1.70075351E+00  0.00000000E+00
  0.00000000E+00  0.00000000E+00  1.88972612E+00  0.00000000E+00  0.00000000E+00
  0.00000000E+00  2.07869874E+00
Number of symbols in /Mol/                 I                0
Force Field                                I                0
Atom Types                                 C   N=           4
                                                
Int Atom Types                             I   N=           4
           0           0           0           0
MM charges                                 R   N=           4
  0.00000000E+00  0.00000000E+00  0.00000000E+00  0.00000000E+00
Integer atomic weights                     I   N=           4
          14           1           1           1
Real atomic weights                        R   N=           4
  1.40030740E+01  1.00782504E+00  1.00782504E+00  1.00782504E+00
Atom fragment info                         I   N=           4
           0           0           0           0
Atom residue num                           I   N=           4
           0           0           0           0
Nuclear spins                              I   N=           4
           2           1           1           1
Nuclear ZEff                               R   N=           4
 -4.55000000E+00 -1.00000000E+00 -1.00000000E+00 -1.00000000E+00
Nuclear ZNuc                               R   N=           4
  7.00000000E+00  1.00000000E+00  1.00000000E+00  1.00000000E+00
Nuclear QMom                               R   N=           4
  2.04400000E+00  0.00000000E+00  0.00000000E+00  0.00000000E+00
Nuclear GFac                               R   N=           4
  4.03761000E-01  2.79284600E+00  2.79284600E+00  2.79284600E+00
MicOpt                                     I   N=           4
          -1          -1          -1          -1
Number of residues                         I                0
Number of secondary structures             I                0
Number of contracted shells                I                9
Number of primitive shells                 I               22
Pure/Cartesian d shells                    I                1
Pure/Cartesian f shells                    I                0
Highest angular momentum                   I                1
Largest degree of contraction              I                6
Shell types                                I   N=           9
           0          -1          -1           0           0           0
           0           0           0
Number of primitives per shell             I   N=           9
           6           3           1           3           1           3
           1           3           1
Shell to atom map                          I   N=           9
           1           1           1           2           2           3
           3           4           4
Primitive exponents                        R   N=          22
  4.17351146E+03  6.27457911E+02  1.42902093E+02  4.02343293E+01  1.28202129E+01
  4.39043701E+00  1.16263619E+01  2.71627981E+00  7.72218397E-01  2.12031498E-01
  1.87311370E+01  2.82539436E+00  6.40121692E-01  1.61277759E-01  1.87311370E+01
  2.82539436E+00  6.40121692E-01  1.61277759E-01  1.87311370E+01  2.82539436E+00
  6.40121692E-01  1.61277759E-01
Contraction coefficients                   R   N=          22
  1.83477216E-03  1.39946270E-02  6.85865518E-02  2.32240873E-01  4.69069948E-01
  3.60455199E-01 -1.14961182E-01 -1.69117479E-01  1.14585195E+00  1.00000000E+00
  3.34946043E-02  2.34726953E-01  8.13757326E-01  1.00000000E+00  3.34946043E-02
  2.34726953E-01  8.13757326E-01  1.00000000E+00  3.34946043E-02  2.34726953E-01
  8.13757326E-01  1.00000000E+00
P(S=P) Contraction coefficients            R   N=          22
  0.00000000E+00  0.00000000E+00  0.00000000E+00  0.00000000E+00  0.00000000E+00
  0.00000000E+00  6.75797439E-02  3.23907296E-01  7.40895140E-01  1.00000000E+00
  0.00000000E+00  0.00000000E+00  0.00000000E+00  0.00000000E+00  0.00000000E+00
  0.00000000E+00  0.00000000E+00  0.00000000E+00  0.00000000E+00  0.00000000E+00
  0.00000000E+00  0.00000000E+00
Coordinates of each shell                  R   N=          27
  0.00000000E+00  0.00000000E+00  0.00000000E+00  0.00000000E+00  0.00000000E+00
  0.00000000E+00  0.00000000E+00  0.00000000E+00  0.00000000E+00  1.70075351E+00
  0.00000000E+00  0.00000000E+00  1.70075351E+00  0.00000000E+00  0.00000000E+00
  0.00000000E+00  1.88972612E+00  0.00000000E+00  0.00000000E+00  1.88972612E+00
  0.00000000E+00  0.00000000E+00  0.00000000E+00  2.07869874E+00  0.00000000E+00
  0.00000000E+00  2.07869874E+00
Num ILSW                                   I              100
ILSW                                       I   N=         100
           0           1           0           0           2           0
           0           0           0           0           0          -1
           5           0           0           0           2           0
           0           0           0           0           1           0
           1           1           0           0           0           0
           0           0      100000           0          -1           0
           0           0           0           0           0           0
           0           0           0           1           0           0
           0 -2000000000           1           0           0           0
           0           0           4          52           0           0
           0           0           0           0           0           0
           0           0           0           4           0           1
           0           0           0           0           0           0
           0           0           0           0           0           0
           0           0           0           0           0           0
           0           0           0           0           0           0
           0           0           0           0
Num RLSW                                   I               52
RLSW                                       R   N=          52
  1.00000000E+00  1.00000000E+00  1.00000000E+00  1.00000000E+00  1.00000000E+00
  0.00000000E+00  0.00000000E+00  1.00000000E+00  0.00000000E+00  0.00000000E+00
  0.00000000E+00  0.00000000E+00  1.00000000E+00  0.00000000E+00  0.00000000E+00
  0.00000000E+00  0.00000000E+00  1.00000000E+00  0.00000000E+00  0.00000000E+00
  0.00000000E+00  0.00000000E+00  1.00000000E+00  0.00000000E+00  0.00000000E+00
  0.00000000E+00  0.00000000E+00  1.00000000E+00  0.00000000E+00  0.00000000E+00
  0.00000000E+00  0.00000000E+00  1.00000000E+00  0.00000000E+00  0.00000000E+00
  0.00000000E+00  0.00000000E+00  0.00000000E+00  1.00000000E+00  1.00000000E+00
  0.00000000E+00  1.00000000E+00  0.00000000E+00  0.00000000E+00  0.00000000E+00
  0.00000000E+00  0.00000000E+00  0.00000000E+00  0.00000000E+00  0.00000000E+00
  0.00000000E+00  0.00000000E+00
MxBond                                     I                3
NBond                                      I   N=           4
           3           1           1           1
IBond                                      I   N=          12
           2           3           4           1           0           0
           1           0           0           1           0           0
RBond                                      R   N=          12
  1.00000000E+00  1.00000000E+00  1.00000000E+00  1.00000000E+00  0.00000000E+00
  0.00000000E+00  1.00000000E+00  0.00000000E+00  0.00000000E+00  1.00000000E+00
  0.00000000E+00  0.00000000E+00
Virial Ratio                               R      1.995261666601710E+00
SCF Energy                                 R     -5.610620954286904E+01
Total Energy                               R     -5.610620954286904E+01
RMS Force                                  R      6.954433273973798E-02
RMS Density                                R      7.282306155502626E-09
NImag                                      I                0
Job Status                                 I                1
Nuclear derivative order                   I                2
External E-field                           R   N=          35
  0.00000000E+00  0.00000000E+00  0.00000000E+00  0.00000000E+00  0.00000000E+00
  0.00000000E+00  0.00000000E+00  0.00000000E+00  0.00000000E+00  0.00000000E+00
  0.00000000E+00  0.00000000E+00  0.00000000E+00  0.00000000E+00  0.00000000E+00
  0.00000000E+00  0.00000000E+00  0.00000000E+00  0.00000000E+00  0.00000000E+00
  0.00000000E+00  0.00000000E+00  0.00000000E+00  0.00000000E+00  0.00000000E+00
  0.00000000E+00  0.00000000E+00  0.00000000E+00  0.00000000E+00  0.00000000E+00
  0.00000000E+00  0.00000000E+00  0.00000000E+00  0.00000000E+00  0.00000000E+00
IOpCl                                      I                0
IROHF                                      I                0
Alpha Orbital Energies                     R   N=          15
 -1.55588448E+01 -1.21408054E+00 -6.31480107E-01 -5.87161768E-01 -4.61939861E-01
  1.95472797E-01  2.95679817E-01  3.29934287E-01  8.56180808E-01  8.88921599E-01
  9.92484347E-01  1.15113639E+00  1.23388323E+00  1.37825570E+00  1.87240103E+00
Alpha MO coefficients                      R   N=         225
  9.96053635E-01  2.33447963E-02  2.02128371E-03  1.76991096E-03  1.60019256E-03
 -1.19190638E-02 -2.33969008E-03 -1.99998273E-03 -1.73813906E-03 -5.38274037E-05
  3.35842689E-03  1.43313978E-04  2.52759220E-03  3.41206925E-04  1.88183646E-03
 -1.93079453E-01  4.01244762E-01  1.20842983E-01  8.69897195E-02  6.16125991E-02
  4.19724030E-01  4.88944041E-02  4.66276929E-02  4.21685270E-02  1.85234353E-01
 -2.90791026E-03  1.44798711E-01 -5.88192933E-04  1.12780473E-01  3.33357098E-03
  1.06102451E-02 -1.36818388E-02  3.96141881E-01 -2.74928430E-01 -8.06052925E-02
 -8.84383854E-02  1.74362870E-01 -1.40900550E-01 -4.75503899E-02  3.03917295E-01
  2.02050732E-01 -2.25120553E-01 -1.57230314E-01 -7.22296217E-02 -5.56788092E-02
 -1.16210782E-02  1.46274852E-02 -1.23620894E-01 -2.83216156E-01  3.51529753E-01
  8.59539170E-02 -5.79680349E-02 -1.49149937E-01  2.06728661E-01 -8.46598573E-02
 -6.00512288E-02 -2.06575908E-01 -1.54623709E-01  2.79197976E-01  2.30455735E-01
 -9.42694765E-02  2.20187896E-01 -2.82841771E-01 -2.90975601E-01 -3.07829274E-01
  3.69697252E-01 -2.33276226E-01 -2.40642138E-01 -2.55799401E-01 -6.98222332E-02
 -3.24680923E-02 -8.20694654E-02 -5.52926611E-02 -1.00416208E-01 -8.44115864E-02
 -9.91624062E-02  7.60299731E-02  6.98587062E-02  1.14169179E-01  1.86428476E-01
  1.73297594E+00  3.00876657E-01  3.64581486E-01  4.85146937E-01 -4.55868635E-04
 -8.55271459E-01 -1.93632002E-02 -8.68237791E-01 -5.19852482E-02 -9.93209859E-01
 -1.38756216E-02 -6.85547485E-04  7.48314835E-02  2.20304320E-01 -2.75657368E-01
  4.41803413E-01  2.50008429E-01  6.34910283E-01 -6.99518636E-01 -1.07670338E-02
 -5.87120489E-01 -5.27362752E-02 -1.35169449E+00  8.81397479E-02  1.39194301E+00
  9.66455658E-03  5.40264128E-03 -2.66030550E-01  1.93091921E-01  7.20376020E-02
 -4.10043790E-01 -8.90844903E-01  5.67778105E-01  1.88694610E-01  2.78589595E-02
  2.10553031E+00 -3.64311759E-02 -1.24553436E+00 -1.88605103E-02 -3.95564607E-01
 -7.92238440E-03 -6.86951338E-02 -3.76820008E-01  1.02109354E-01  1.14145290E-02
  5.05679319E-01  1.17680619E+00 -4.54056810E-01 -1.42744271E-01 -7.80977599E-01
 -1.87612906E-01  5.00495830E-01 -1.64926158E-01  3.07150390E-01 -2.23256675E-01
 -8.23116670E-03 -5.98468666E-02 -1.14862878E-01 -3.30119999E-01  1.67548391E-01
  3.87517635E-01  2.34049945E-01  8.26700965E-01 -5.19954487E-01 -1.09985660E-01
 -5.79099702E-02 -6.77225216E-01  1.18870702E-01  8.08375873E-01 -5.21726742E-01
 -4.17889881E-02  2.64107350E-01 -4.50398604E-01 -5.40667684E-01 -6.57733376E-01
  1.79679406E-01  4.73702817E-01  6.84254326E-01  9.04114293E-01  6.15311420E-02
 -1.62030494E-01 -3.76911999E-02 -2.39338178E-01 -2.45388184E-01 -1.55221631E-01
 -3.63250427E-02  4.47632926E-01 -2.97246334E-01 -3.57863102E-01  7.98828049E-01
 -4.95301902E-01  4.58927690E-01  5.16358109E-01 -9.93782717E-01  2.38138402E-02
 -3.92716003E-01  7.25372695E-02 -4.48576736E-01 -7.22697068E-01  1.44426345E+00
 -4.03497662E-02  5.95628194E-01 -4.94229323E-01  7.70690930E-01 -2.73392812E-02
 -7.96634704E-01  6.48331503E-01 -8.86050848E-01  5.74052508E-02  2.43233263E-01
 -7.57753039E-01 -8.04791143E-01  1.50671193E+00 -1.03659626E-01  8.72766313E-02
  6.14666419E-02 -1.31772127E+00 -6.83293080E-01 -1.21682164E-02  7.40389706E-02
  2.02297892E+00  7.35224572E-01  3.05136637E-02 -5.70727998E-02  8.39265362E-01
 -1.53485500E+00  1.30924759E-01 -2.46919347E-01 -1.84234769E-02 -2.33247587E-02
 -7.59936124E-02 -1.30455746E+00  1.70359363E-01  1.89001828E-02 -8.74782126E-02
  3.61425457E+00  9.01175758E-01  8.55183297E-01  7.93806481E-01 -1.04526159E+00
 -7.36905658E-01 -9.46838901E-01 -5.59975192E-01 -8.94504829E-01 -3.92775529E-01
Orthonormal basis                          R   N=         225
  3.98441339E-02  1.57102238E-01  3.73232351E-02  3.29035473E-02  2.83608478E-02
  2.08130751E-01  5.93710015E-02  5.68327407E-02  5.29618399E-02  1.36065661E-01
  1.94050334E-01  1.25282350E-01  1.86626066E-01  1.13759560E-01  1.77699981E-01
 -5.09700576E-03 -1.13985690E-02 -5.99419452E-02 -1.82038049E-01  2.46984264E-01
 -1.90923136E-03 -7.30267189E-02 -2.34828047E-01  3.35455664E-01 -6.45406323E-02
 -3.74066394E-02 -1.99073061E-01 -1.35717463E-01  2.78725750E-01  2.14576572E-01
  6.88762128E-03  1.47108926E-02  2.60591654E-01 -1.91773335E-01 -7.55886109E-02
  3.72540426E-03  3.18226927E-01 -2.47405098E-01 -1.02519919E-01  2.70878500E-01
  1.70038655E-01 -2.03570327E-01 -1.45750255E-01 -8.31910415E-02 -6.59613813E-02
 -1.44497861E-01 -2.59938815E-01  2.88773275E-01  2.62170097E-01  2.40580789E-01
 -2.39175711E-01  2.94553646E-01  2.73748637E-01  2.56997444E-01  9.47268002E-02
 -2.62845571E-02  8.92564571E-02 -1.80759775E-02  8.45868303E-02 -9.73533039E-03
  9.23124770E-01  1.52723765E-01  1.04365455E-01  1.43649247E-01  1.99411035E-01
 -5.06743648E-02  3.66641707E-02  5.86300898E-02  8.04360764E-02  4.52807216E-03
 -1.11161307E-01 -2.90289336E-02 -1.09940381E-01 -7.34511567E-02 -1.17099573E-01
 -2.03534165E-01  2.16581925E-01 -1.50679063E-01 -3.00742016E-01  8.53480658E-01
  7.46824004E-02 -3.72156698E-02 -1.96473985E-02 -4.70425853E-02  1.30922272E-01
  2.84912974E-02  2.10676079E-01  8.26735493E-02 -4.92787029E-01 -3.00701511E-01
 -2.13203452E-01  3.48181796E-01 -3.79217039E-01  8.77201254E-01  1.29977023E-01
  1.05443883E-01 -3.46756414E-04 -1.85331229E-01 -4.34114737E-02  2.72822281E-01
  8.71593868E-02 -3.76860128E-01 -3.46001114E-01 -2.05931298E-02 -7.65337662E-02
 -2.50426950E-01  5.79684257E-01  8.86392681E-01  1.14738055E-01  4.57753597E-03
  1.59018842E-01 -4.12594753E-01 -9.10708798E-02 -2.08900302E-02 -1.24153023E-01
 -4.45855351E-01  8.01008574E-02 -1.27496051E-01  8.39259403E-02 -7.18927558E-02
 -1.03944041E-01  5.94871046E-01 -3.39640370E-01 -3.56587101E-01 -5.56881577E-01
 -2.38258210E-01  1.09699341E-01  4.27969428E-01  8.22426527E-01  5.41316427E-01
 -3.73168903E-01  1.04721048E-01 -2.36737742E-01 -3.28039878E-01 -3.81347166E-02
  1.07853194E-02 -4.48588708E-02 -3.71687355E-03  2.89328735E-01 -1.92882047E-01
  2.21903173E-02  2.94397839E-01 -8.03109130E-01  3.83823082E-01 -4.50988969E-01
  1.52419006E-01  9.31116832E-01 -3.50866556E-01 -4.63991665E-01  2.21291497E-01
 -9.14603977E-02  5.96997972E-01 -2.84673411E-01 -2.04655050E-01  5.53105448E-02
 -9.05093744E-02  7.53468957E-01  1.58369844E-01 -2.97452797E-01 -5.36638158E-01
 -2.07867763E-02  2.89564637E-01 -2.82179408E-01  8.07818629E-01 -5.17498422E-01
  1.12102906E-01 -4.97509534E-01 -1.68026091E-01 -4.72047215E-02  1.39603576E-02
  9.22367652E-02 -4.55264982E-01 -3.34925162E-01 -2.52666504E-01  1.06508549E+00
 -3.58393013E-01  8.37533791E-01 -3.77848997E-01  7.25978686E-01 -3.99570241E-01
  3.85533208E-03  1.43233529E-01 -1.26066271E-01 -2.67950465E-01  4.18400623E-01
 -2.22976899E-01  2.93888122E-01  7.61344571E-01 -1.33009839E+00  1.81477100E-01
 -5.83843367E-01  3.14788876E-01 -1.34115456E+00 -3.22004810E-01  2.08905434E+00
 -5.98520022E-03 -1.92341612E-01  3.93641346E-01 -3.30946586E-01 -1.03669593E-01
  3.43006514E-01 -1.20947466E+00  1.18687692E+00  3.93189114E-01 -3.94169576E-01
  2.20296700E+00  1.72416007E-01 -1.89899396E+00 -4.45419107E-03 -5.56063259E-01
 -8.26723360E-02 -1.62797046E+00 -1.40639655E-01 -1.06729516E-01 -1.02446345E-01
  4.66708705E+00  1.37555201E+00  9.52716311E-01  7.08708479E-01 -5.50407345E-01
 -1.86372785E+00 -5.58757127E-01 -1.04517391E+00 -5.40104867E-01 -6.24334856E-01
Total SCF Density                          R   N=         120
  2.07707376E+00 -1.50583205E-01  4.20852408E-01  2.19682524E-02 -4.19434926E-02
  5.33634190E-01  2.55426708E-02 -5.90100629E-02  3.78329953E-02  4.96068353E-01
  2.75525171E-02 -7.35527329E-02  3.82562145E-02  3.50701682E-02  4.57255831E-01
 -2.59401019E-01  5.04007939E-01 -1.99058124E-01 -1.42223223E-01 -1.01236920E-01
  6.56391614E-01  2.54871000E-02 -7.00682576E-02  2.96245147E-01  8.12140666E-02
  8.07719193E-02 -1.72188974E-01  1.81153277E-01  2.38571252E-02 -6.91559352E-02
  7.26313503E-02  3.10105639E-01  7.17460744E-02 -1.39458280E-01  8.49974139E-02
  2.04370898E-01  2.26679770E-02 -7.15402211E-02  6.61006601E-02  6.52411874E-02
  3.15683927E-01 -1.09748113E-01  8.29262279E-02  7.87842428E-02  2.24424636E-01
 -5.00559626E-02  1.07105077E-01  3.45985806E-01 -4.62970202E-02 -4.27035801E-02
  3.55601231E-02  1.66488748E-01 -9.51154373E-03 -1.25627321E-02  2.77439852E-01
  1.96180978E-02 -2.37605738E-02  1.92606129E-01 -5.86832080E-02 -5.51506251E-02
 -7.25891850E-02  9.22703865E-02 -2.36830741E-02 -2.76900848E-02  1.36437619E-01
  9.10091211E-02 -4.01324227E-02  8.01814880E-02 -4.58634211E-02  3.13748279E-01
 -4.05732632E-02  6.51724484E-02 -2.10699987E-03  1.78062216E-01 -9.80314279E-03
 -3.67547634E-02 -6.16731540E-02  2.42109907E-01  1.59444753E-02 -2.49246682E-02
 -5.51953744E-02  2.06122276E-01 -4.93854689E-02 -4.02077368E-02 -1.11762123E-02
  1.16978434E-01 -2.07483130E-02 -6.18860464E-02 -4.13554201E-02  1.43580680E-01
  1.03387752E-01 -3.19610077E-02  5.64446088E-02 -4.21931302E-02 -4.03707780E-02
  2.83657556E-01  8.11900852E-02  3.19055109E-04 -4.08557070E-03  1.83188739E-01
 -3.53732172E-02 -5.68534328E-02 -3.36871649E-02 -5.26542707E-02  2.11943189E-01
  1.18385842E-02 -2.61442485E-02 -5.25281744E-02 -5.02121412E-02  2.23385626E-01
 -1.01945285E-02 -6.43515339E-03 -1.21252516E-02  1.44038178E-01 -5.98418134E-02
 -4.47035696E-02 -5.53231561E-02 -4.44187737E-02  1.54434659E-01  1.26699891E-01
Grdnt Energy                               R     -5.610620954286904E+01
Grdnt NVar                                 I                0
Grdnt IGetFC                               I                4
Mulliken Charges                           R   N=           4
 -7.75695359E-01  2.70308674E-01  2.62805808E-01  2.42580877E-01
ONIOM Charges                              I   N=          16
           0           0           0           0           0           0
           0           0           0           0           0           0
           0           0           0           0
ONIOM Multiplicities                       I   N=          16
           1           0           0           0           0           0
           0           0           0           0           0           0
           0           0           0           0
Atom Layers                                I   N=           4
           1           1           1           1
Atom Modifiers                             I   N=           4
           0           0           0           0
Force Field                                I                0
Atom Modified Types                        C   N=           4
                                                
Int Atom Modified Types                    I   N=           4
           0           0           0           0
Link Atoms                                 I   N=           4
           0           0           0           0
Atom Modified MM Charges                   R   N=           4
  0.00000000E+00  0.00000000E+00  0.00000000E+00  0.00000000E+00
Link Distances                             R   N=          16
  0.00000000E+00  0.00000000E+00  0.00000000E+00  0.00000000E+00  0.00000000E+00
  0.00000000E+00  0.00000000E+00  0.00000000E+00  0.00000000E+00  0.00000000E+00
  0.00000000E+00  0.00000000E+00  0.00000000E+00  0.00000000E+00  0.00000000E+00
  0.00000000E+00
Cartesian Gradient                         R   N=          12
  9.05274394E-02 -4.37711696E-02 -1.09987356E-01 -1.60642343E-01  4.36562726E-02
  3.76740920E-02  3.92906456E-02 -2.75388508E-02  3.04191221E-02  3.08242577E-02
  2.76537478E-02  4.18941422E-02
Cartesian Force Constants                  R   N=          78
  1.02644335E+00 -3.75893005E-02  4.93290428E-01 -3.34167064E-02 -3.06445951E-02
  2.14144676E-01 -9.20060606E-01  4.38619133E-02  3.69508749E-02  9.55252814E-01
 -1.86876913E-02  3.19451076E-02  1.49140649E-02 -4.80258703E-02 -1.28252444E-02
 -1.64871299E-02  1.57444868E-02  3.25028313E-02 -4.05713187E-02 -8.25242433E-03
 -1.56378554E-02 -3.99816282E-02 -1.91544626E-02  1.34226586E-02 -2.01213786E-02
  7.34655461E-02 -7.42718271E-03  5.15460593E-02  4.25584232E-02 -4.60430246E-01
  2.89092558E-02  4.10204199E-03 -2.95945406E-02  9.36627036E-04 -4.74267991E-02
  5.07441666E-01  1.50904283E-02 -1.30830154E-02 -3.76593038E-02  6.81045607E-05
 -8.41412529E-03  1.38303469E-02 -7.57271265E-03 -3.52556748E-02  4.78551654E-02
 -6.64011134E-02  1.28818498E-02 -1.69568271E-02 -1.50708296E-02 -6.75198450E-03
  6.44856313E-02  8.55694739E-03  7.66333941E-04 -7.58582024E-03  7.29149956E-02
  1.37185687E-02 -6.48052899E-02 -1.31787256E-02  6.19150565E-05  1.04746775E-02
 -8.42868953E-03 -6.88428442E-03 -1.74168799E-02  5.67528155E-02 -6.89619929E-03
  7.17474923E-02  3.48134079E-02  2.79831236E-02 -2.08988204E-01  3.55233925E-03
  1.75248468E-03 -3.06953229E-02  1.57723675E-03  5.40979197E-03 -2.40262085E-02
 -3.99429839E-02 -3.51454003E-02  2.63709735E-01
Nonadiabatic coupling                      R   N=          12
  0.00000000E+00  0.00000000E+00  0.00000000E+00  0.00000000E+00  0.00000000E+00
  0.00000000E+00  0.00000000E+00  0.00000000E+00  0.00000000E+00  0.00000000E+00
  0.00000000E+00  0.00000000E+00
Dipole Moment                              R   N=           3
  7.16376043E-01  6.81996896E-01  6.31776408E-01
Dipole Derivatives                         R   N=          36
 -4.10323595E-01  8.01246370E-02  7.97822118E-02  3.39474096E-02 -3.11515321E-01
  2.60418794E-02 -4.95190628E-03 -1.06915968E-02 -2.11491722E-01 -1.03588949E-01
  3.78021094E-02  3.84218680E-02 -1.03649958E-01  2.56690067E-01  4.34330092E-02
 -7.04348196E-02  3.68402945E-02  2.28963002E-01  2.67612246E-01 -1.48068801E-01
  3.90897153E-02  4.35534165E-02 -1.74535842E-01  5.54567393E-02  2.87640456E-02
 -8.20244741E-02  2.23472411E-01  2.46300297E-01  3.01420550E-02 -1.57293795E-01
  2.61491322E-02  2.29361096E-01 -1.24931628E-01  4.66226803E-02  5.58757765E-02
 -2.40943690E-01
Polarizability                             R   N=           6
  6.32313693E+00 -2.03011500E-01  8.08150368E+00 -2.81943670E-01 -4.66943212E-01
  1.01592999E+01
Polarizability Derivatives                 R   N=          72
 -9.25974408E+00 -1.68347729E+00 -1.08218332E+00 -2.00220337E+00  3.20818475E-02
 -1.25013641E+00 -6.28015916E-01 -1.20110392E+00 -1.14474330E+01  2.61044982E-02
 -1.69036028E+00 -9.30446350E-01 -3.75482158E-01  3.45823581E-02 -4.87514783E-01
 -1.04219007E+00 -1.22863767E+00 -1.36170736E+01  8.43140610E+00 -5.80281963E-01
  9.73666239E-02 -8.83782257E-01  5.57333618E-03  2.45605918E-01  8.46107838E-01
  1.74233247E+00  1.02645017E+00 -2.36422961E-02 -2.02102737E-01 -2.41943522E-01
  6.75850125E-01 -1.24606661E-02 -1.88034760E-01  1.59976145E+00 -1.25428882E-01
  1.16234601E+00  5.46638979E-01  2.49858682E+00  1.13866328E+00 -2.68373783E-01
 -3.26943204E-02 -2.17749185E-01 -1.04069388E-01 -3.99096584E-01  1.01360811E+01
 -8.34289282E-03 -1.07079833E+00  9.58735670E-02 -1.25424842E-01 -7.14697999E-03
  8.07583367E-01 -1.00960265E-01  2.16006510E+00  6.89976639E-01  2.81699007E-01
 -2.34827574E-01 -1.53846578E-01  3.15435941E+00 -4.96086322E-03  1.22227968E+00
 -1.14022535E-01 -1.42131961E-01  2.84901748E-01  5.88069076E-03  2.96326134E+00
  1.07651631E+00 -1.74943125E-01 -1.49747120E-02 -1.32033824E-01 -4.56611115E-01
 -8.05998552E-01  1.17647510E+01
HyperPolarizability                        R   N=          10
  3.48189088E+01 -1.86448985E+00 -1.33154809E+00  4.55570414E+01 -3.10320591E+00
  7.90898865E-01 -4.42434204E+00 -1.77679771E+00 -3.47733563E+00  5.62055183E+01
Quadrupole Moment                          R   N=           6
 -9.00410197E-02  1.86958969E-03  8.81714300E-02 -1.16504255E-01 -1.11534159E-01
 -9.86076329E-02
QEq coupling tensors                       R   N=          24
  2.38535867E-01  2.91105148E-01  8.95834763E-03  2.98806897E-01  2.81015680E-01
 -2.47494215E-01 -8.64101447E-01  5.85974598E-02  4.31193303E-01  5.15444100E-02
  1.30117176E-02  4.32908144E-01  2.39973896E-01  5.33739898E-02 -4.83975734E-01
  9.84576942E-03  4.11138114E-02  2.44001838E-01  1.36425182E-01  7.17833486E-03
  1.38210046E-01  4.28411327E-02  3.77626011E-02 -2.74635228E-01
Number of Normal Modes                     I                6
Vib-LE2Fix                                 I               14
Vib-NDFDPol                                I                0
Vib-NumROA                                 I                0
Vib-NDim                                   I                4
Vib-NDim0                                  I                4
Vib-LFlags                                 I                8
Vib-IFlags                                 I   N=          48
           0           0           1           0           0           0
           0           0           0           0           2           0
           0           0           0           0           0           0
           3           0           0           0           0           0
           0           0           4           0           0           0
           0           0           0           0           5           0
           0           0           0           0           0           0
           6           0           0           0           0           0
Vib-AtMass                                 R   N=           4
  1.40030740E+01  1.00782504E+00  1.00782504E+00  1.00782504E+00
Vib-E2                                     R   N=          84
  1.33737232E+03  1.53079248E+03  1.75781189E+03  2.78436518E+03  3.78676401E+03
  5.17999185E+03  1.14742368E+00  1.06301923E+00  1.05129020E+00  1.03734773E+00
  1.05697142E+00  1.06727892E+00  1.20914579E+00  1.46765494E+00  1.91389283E+00
  4.73834796E+00  8.92996856E+00  1.68727661E+01  4.13519539E+01  7.52130687E+00
  5.27021930E+00  6.07864380E+01  2.83030777E+01  7.60724274E+00  4.34833519E+01
  2.62516771E+01  2.75074463E+01  1.16748116E+02  1.00816339E+02  7.30996731E+01
  2.43150339E-01  7.12252106E-01  6.25068468E-01  3.91896914E-01  3.41306572E-01
  3.17036988E-01  3.91184125E-01  8.31947706E-01  7.69282624E-01  5.63111980E-01
  5.08916573E-01  4.81439764E-01  0.00000000E+00  0.00000000E+00  0.00000000E+00
  0.00000000E+00  0.00000000E+00  0.00000000E+00  0.00000000E+00  0.00000000E+00
  0.00000000E+00  0.00000000E+00  0.00000000E+00  0.00000000E+00  1.00000000E+02
  1.00000000E+02  1.00000000E+02  1.00000000E+02  1.00000000E+02  1.00000000E+02
  0.00000000E+00  0.00000000E+00  0.00000000E+00  0.00000000E+00  0.00000000E+00
  0.00000000E+00  0.00000000E+00  0.00000000E+00  0.00000000E+00  0.00000000E+00
  0.00000000E+00  0.00000000E+00  0.00000000E+00  0.00000000E+00  0.00000000E+00
  0.00000000E+00  0.00000000E+00  0.00000000E+00  0.00000000E+00  0.00000000E+00
  0.00000000E+00  0.00000000E+00  0.00000000E+00  0.00000000E+00
Vib-Modes                                  R   N=          72
 -5.76727681E-02 -3.88892316E-02 -7.68359437E-02  1.30043254E-03  3.02797470E-01
  6.44731366E-01  2.72517723E-01  4.22164000E-02  2.14859406E-01  5.27507481E-01
  1.95326732E-01  2.07994738E-01 -2.15495042E-02 -5.52144666E-02  2.70968835E-02
  5.94612894E-03  6.50690668E-01 -3.57073900E-01  5.85621601E-01  6.26470481E-02
  5.92145610E-02 -2.92151373E-01  5.38314191E-02 -7.86342498E-02  2.38635499E-02
 -3.32995129E-02 -4.08211981E-02  4.35023693E-03 -1.71250712E-01 -2.22191585E-01