NH3 B3LYP Frequency                                                     
Freq      RB3LYP                                                      6-31G               
Number of atoms                            I                4
Info1-9                                    I   N=           9
          11          11           0           0           0         100
           6          18        -502
Full Title                                 C   N=           2
NH3 B3LYP Frequency     
Route                                      C   N=           5
#p RB3LYP/6-31G nosymm SCF(VeryTight) Freq Int(Grid=99590)  
Charge                                     I                0
Multiplicity                               I                1
Number of electrons                        I               10
Number of alpha electrons                  I                5
Number of beta electrons                   I                5
Number of basis functions                  I               15
Number of independent functions            I               15
Number of point charges in /Mol/           I                0
Number of translation vectors              I                0
Atomic numbers                             I   N=           4
           7           1           1           1
Nuclear charges                            R   N=           4
  7.00000000E+00  1.00000000E+00  1.00000000E+00  1.00000000E+00
Current cartesian coordinates              R   N=          12
  0.00000000E+00  0.00000000E+00  0.00000000E+00  1.70075351E+00  0.00000000E+00
  0.00000000E+00  0.00000000E+00  1.88972612E+00  0.00000000E+00  0.00000000E+00
  0.00000000E+00  2.07869874E+00
Number of symbols in /Mol/                 I                0
Force Field                                I                0
Atom Types                                 C   N=           4
                                                
Int Atom Types                             I   N=           4
           0           0           0           0
MM charges                                 R   N=           4
  0.00000000E+00  0.00000000E+00  0.00000000E+00  0.00000000E+00
Integer atomic weights                     I   N=           4
          14           1           1           1
Real atomic weights                        R   N=           4
  1.40030740E+01  1.00782504E+00  1.00782504E+00  1.00782504E+00
Atom fragment info                         I   N=           4
           0           0           0           0
Atom residue num                           I   N=           4
           0           0           0           0
Nuclear spins                              I   N=           4
           2           1           1           1
Nuclear ZEff                               R   N=           4
 -4.55000000E+00 -1.00000000E+00 -1.00000000E+00 -1.00000000E+00
Nuclear ZNuc                               R   N=           4
  7.00000000E+00  1.00000000E+00  1.00000000E+00  1.00000000E+00
Nuclear QMom                               R   N=           4
  2.04400000E+00  0.00000000E+00  0.00000000E+00  0.00000000E+00
Nuclear GFac                               R   N=           4
  4.03761000E-01  2.79284600E+00  2.79284600E+00  2.79284600E+00
MicOpt                                     I   N=           4
          -1          -1          -1          -1
Number of residues                         I                0
Number of secondary structures             I                0
Number of contracted shells                I                9
Number of primitive shells                 I               22
Pure/Cartesian d shells                    I                1
Pure/Cartesian f shells                    I                0
Highest angular momentum                   I                1
Largest degree of contraction              I                6
Shell types                                I   N=           9
           0          -1          -1           0           0           0
           0           0           0
Number of primitives per shell             I   N=           9
           6           3           1           3           1           3
           1           3           1
Shell to atom map                          I   N=           9
           1           1           1           2           2           3
           3           4           4
Primitive exponents                        R   N=          22
  4.17351146E+03  6.27457911E+02  1.42902093E+02  4.02343293E+01  1.28202129E+01
  4.39043701E+00  1.16263619E+01  2.71627981E+00  7.72218397E-01  2.12031498E-01
  1.87311370E+01  2.82539436E+00  6.40121692E-01  1.61277759E-01  1.87311370E+01
  2.82539436E+00  6.40121692E-01  1.61277759E-01  1.87311370E+01  2.82539436E+00
  6.40121692E-01  1.61277759E-01
Contraction coefficients                   R   N=          22
  1.83477216E-03  1.39946270E-02  6.85865518E-02  2.32240873E-01  4.69069948E-01
  3.60455199E-01 -1.14961182E-01 -1.69117479E-01  1.14585195E+00  1.00000000E+00
  3.34946043E-02  2.34726953E-01  8.13757326E-01  1.00000000E+00  3.34946043E-02
  2.34726953E-01  8.13757326E-01  1.00000000E+00  3.34946043E-02  2.34726953E-01
  8.13757326E-01  1.00000000E+00
P(S=P) Contraction coefficients            R   N=          22
  0.00000000E+00  0.00000000E+00  0.00000000E+00  0.00000000E+00  0.00000000E+00
  0.00000000E+00  6.75797439E-02  3.23907296E-01  7.40895140E-01  1.00000000E+00
  0.00000000E+00  0.00000000E+00  0.00000000E+00  0.00000000E+00  0.00000000E+00
  0.00000000E+00  0.00000000E+00  0.00000000E+00  0.00000000E+00  0.00000000E+00
  0.00000000E+00  0.00000000E+00
Coordinates of each shell                  R   N=          27
  0.00000000E+00  0.00000000E+00  0.00000000E+00  0.00000000E+00  0.00000000E+00
  0.00000000E+00  0.00000000E+00  0.00000000E+00  0.00000000E+00  1.70075351E+00
  0.00000000E+00  0.00000000E+00  1.70075351E+00  0.00000000E+00  0.00000000E+00
  0.00000000E+00  1.88972612E+00  0.00000000E+00  0.00000000E+00  1.88972612E+00
  0.00000000E+00  0.00000000E+00  0.00000000E+00  2.07869874E+00  0.00000000E+00
  0.00000000E+00  2.07869874E+00
Num ILSW                                   I              100
ILSW                                       I   N=         100
           0           1           0           0           2           0
           0           0           0           0         402          -1
       99590           0           0           0           2           0
           0           0           0           0           1           0
           1           1           0           0           0           0
           0           0      100000           0          -1           0
           0           0           0           0           0           0
           0           0           0           1           0           0
           0 -2000000000           1           0           0           0
           0           0           4          52           0           0
           0           0           5           0           0           0
           0           0           0           4           0           1
           0           0           0           0           0           0
           0           0           0           0           0           0
           0           0           0           0           0           0
           0           0           0           0           0           0
           0           0           0           0
Num RLSW                                   I               52
RLSW                                       R   N=          52
  8.00000000E-01  7.20000000E-01  1.00000000E+00  8.10000000E-01  2.00000000E-01
  0.00000000E+00  0.00000000E+00  1.00000000E+00  0.00000000E+00  0.00000000E+00
  0.00000000E+00  0.00000000E+00  1.00000000E+00  0.00000000E+00  0.00000000E+00
  0.00000000E+00  0.00000000E+00  1.00000000E+00  0.00000000E+00  0.00000000E+00
  0.00000000E+00  0.00000000E+00  1.00000000E+00  0.00000000E+00  0.00000000E+00
  0.00000000E+00  0.00000000E+00  1.00000000E+00  0.00000000E+00  0.00000000E+00
  0.00000000E+00  0.00000000E+00  1.00000000E+00  0.00000000E+00  0.00000000E+00
  0.00000000E+00  0.00000000E+00  0.00000000E+00  1.00000000E+00  1.00000000E+00
  0.00000000E+00  1.00000000E+00  0.00000000E+00  0.00000000E+00  0.00000000E+00
  0.00000000E+00  0.00000000E+00  0.00000000E+00  0.00000000E+00  0.00000000E+00
  0.00000000E+00  0.00000000E+00
MxBond                                     I                3
NBond                                      I   N=           4
           3           1           1           1
IBond                                      I   N=          12
           2           3           4           1           0           0
           1           0           0           1           0           0
RBond                                      R   N=          12
  1.00000000E+00  1.00000000E+00  1.00000000E+00  1.00000000E+00  0.00000000E+00
  0.00000000E+00  1.00000000E+00  0.00000000E+00  0.00000000E+00  1.00000000E+00
  0.00000000E+00  0.00000000E+00
Virial Ratio                               R      2.000139375868608E+00
SCF Energy                                 R     -5.647879632202876E+01
Total Energy                               R     -5.647879632202876E+01
RMS Force                                  R      7.069310605479938E-02
RMS Density                                R      5.492259279926149E-09
NImag                                      I                0
Job Status                                 I                1
Nuclear derivative order                   I                2
External E-field                           R   N=          35
  0.00000000E+00  0.00000000E+00  0.00000000E+00  0.00000000E+00  0.00000000E+00
  0.00000000E+00  0.00000000E+00  0.00000000E+00  0.00000000E+00  0.00000000E+00
  0.00000000E+00  0.00000000E+00  0.00000000E+00  0.00000000E+00  0.00000000E+00
  0.00000000E+00  0.00000000E+00  0.00000000E+00  0.00000000E+00  0.00000000E+00
  0.00000000E+00  0.00000000E+00  0.00000000E+00  0.00000000E+00  0.00000000E+00
  0.00000000E+00  0.00000000E+00  0.00000000E+00  0.00000000E+00  0.00000000E+00
  0.00000000E+00  0.00000000E+00  0.00000000E+00  0.00000000E+00  0.00000000E+00
IOpCl                                      I                0
IROHF                                      I                0
Alpha Orbital Energies                     R   N=          15
 -1.43177107E+01 -9.23098747E-01 -4.60855547E-01 -4.32632415E-01 -2.81486116E-01
  5.40428770E-02  1.41253357E-01  1.81224778E-01  6.47823399E-01  6.74171797E-01
  7.40077923E-01  8.65764753E-01  9.38455624E-01  1.08244771E+00  1.58435059E+00
Alpha MO coefficients                      R   N=         225
  9.95189143E-01  3.13452966E-02  2.27034633E-03  1.89992862E-03  1.66035924E-03
 -1.98140051E-02 -3.38987395E-03 -2.86838350E-03 -2.46073515E-03 -4.62221800E-04
  5.45463294E-03 -1.40194531E-05  4.04294145E-03  3.71323140E-04  2.97150699E-03
 -1.90743485E-01  3.99957706E-01  1.39810358E-01  1.06950803E-01  8.16271448E-02
  3.86085997E-01  5.08052584E-02  4.97484484E-02  4.59275061E-02  1.90125287E-01
  6.19781816E-03  1.50185590E-01  4.25211713E-03  1.17715060E-01  5.11819067E-03
  7.02218576E-03 -8.96129506E-03  3.90996736E-01 -2.96625201E-01 -9.14533964E-02
 -6.91002706E-02  1.46156866E-01 -1.32541648E-01 -4.73195742E-02  2.96460585E-01
  2.25856824E-01 -2.32130421E-01 -1.80626949E-01 -7.45415984E-02 -6.16254823E-02
 -7.23253919E-03  7.96947102E-03 -1.14910005E-01 -2.71608304E-01  3.81065433E-01
  6.39151158E-02 -4.35971978E-02 -1.21237197E-01  1.94761812E-01 -8.18447879E-02
 -6.56262776E-02 -1.98994210E-01 -1.62827470E-01  2.89679931E-01  2.51373033E-01
 -1.07943783E-01  2.33947278E-01 -2.96474663E-01 -2.88984115E-01 -2.82773332E-01
  4.56436831E-01 -2.24070785E-01 -2.23884141E-01 -2.24395391E-01 -8.26718244E-02
 -7.26068958E-02 -8.35745621E-02 -8.12257754E-02 -8.54277299E-02 -8.94429351E-02
 -9.83704669E-02  1.33574286E-01  8.23376106E-02  1.41125428E-01  2.52829555E-01
  1.56130300E+00  2.42878363E-01  3.18619147E-01  4.74929320E-01 -5.40476839E-03
 -7.39264021E-01 -3.44847730E-02 -7.90437777E-01 -9.28470945E-02 -9.99283855E-01
  1.88679949E-02 -1.65957654E-02 -9.10685953E-02 -2.81391609E-01  3.19986378E-01
 -4.93211386E-01 -2.26324706E-01 -6.01997993E-01  5.98730635E-01  2.05337169E-02
  5.57838745E-01  9.64529735E-02  1.32189284E+00 -1.41105181E-01 -1.21970074E+00
  1.26351167E-02 -6.65651373E-03 -3.32164302E-01  2.27656396E-01  8.70923453E-02
 -4.45678934E-01 -8.28597352E-01  4.96490806E-01  1.67196421E-01  7.38518301E-02
  2.02168903E+00 -7.39350725E-02 -1.11649301E+00 -3.59615470E-02 -3.60131656E-01
 -1.03892161E-02 -6.59995626E-02 -4.02089983E-01  4.88729789E-02 -2.34299067E-02
  5.61375241E-01  1.20230151E+00 -3.69481634E-01 -1.04645104E-01 -7.62938219E-01
 -2.04038783E-01  4.78555646E-01 -1.93534452E-01  3.52902294E-01 -2.95864311E-01
 -1.00895796E-02 -4.88853231E-02 -1.21522264E-01 -3.72878809E-01  1.19438672E-01
  3.92132975E-01  1.84293018E-01  8.93768356E-01 -4.33827231E-01 -4.55070924E-02
 -5.64727153E-02 -6.84488861E-01  1.03057485E-01  7.82945296E-01 -5.63223056E-01
 -3.63679740E-02  1.67220242E-01 -3.99467344E-01 -5.21807879E-01 -7.10590318E-01
  2.96985471E-01  3.37086852E-01  6.49733842E-01  1.02663980E+00  1.55429683E-01
 -1.47598832E-01  4.15487632E-02 -3.14785587E-01 -2.37554050E-01 -2.63159116E-01
 -3.45643962E-02  3.78084667E-01 -3.19358195E-01 -4.30464300E-01  7.12151329E-01
 -3.53279196E-01  5.17036351E-01  6.54882329E-01 -9.89719718E-01  3.27132158E-02
 -4.62181972E-01  1.15772979E-01 -6.22498282E-01 -7.22036803E-01  1.54215334E+00
 -4.02985018E-02  5.18845483E-01 -5.61544166E-01  6.88659085E-01 -1.84816624E-02
 -6.39426418E-01  8.11042745E-01 -8.60827667E-01  5.45331347E-02  2.80312259E-01
 -9.92283347E-01 -8.01635201E-01  1.56874780E+00 -1.58281187E-01  1.48599896E-01
  7.09360573E-02 -1.27741677E+00 -6.05460297E-01 -1.58776523E-02  8.76316929E-02
  1.88051699E+00  6.19181679E-01 -3.03352698E-02 -1.31512432E-01  8.94842988E-01
 -1.51016871E+00  2.46819859E-01 -2.80065489E-01  7.99913011E-02 -2.83488878E-02
 -7.01447414E-02 -1.40536872E+00  1.25637458E-01  4.54216275E-05 -9.13780274E-02
  3.78084558E+00  9.54152787E-01  8.82480440E-01  8.04585151E-01 -9.94947652E-01
 -8.34241733E-01 -9.20593785E-01 -6.08214226E-01 -8.78138430E-01 -4.14938652E-01
Orthonormal basis                          R   N=         225
  3.98441339E-02  1.57102238E-01  3.73232351E-02  3.29035473E-02  2.83608478E-02
  2.08130751E-01  5.93710015E-02  5.68327407E-02  5.29618399E-02  1.36065661E-01
  1.94050334E-01  1.25282350E-01  1.86626066E-01  1.13759560E-01  1.77699981E-01
 -5.09700576E-03 -1.13985690E-02 -5.99419452E-02 -1.82038049E-01  2.46984264E-01
 -1.90923136E-03 -7.30267189E-02 -2.34828047E-01  3.35455664E-01 -6.45406323E-02
 -3.74066394E-02 -1.99073061E-01 -1.35717463E-01  2.78725750E-01  2.14576572E-01
  6.88762128E-03  1.47108926E-02  2.60591654E-01 -1.91773335E-01 -7.55886109E-02
  3.72540426E-03  3.18226927E-01 -2.47405098E-01 -1.02519919E-01  2.70878500E-01
  1.70038655E-01 -2.03570327E-01 -1.45750255E-01 -8.31910415E-02 -6.59613813E-02
 -1.44497861E-01 -2.59938815E-01  2.88773275E-01  2.62170097E-01  2.40580789E-01
 -2.39175711E-01  2.94553646E-01  2.73748637E-01  2.56997444E-01  9.47268002E-02
 -2.62845571E-02  8.92564571E-02 -1.80759775E-02  8.45868303E-02 -9.73533039E-03
  9.23124770E-01  1.52723765E-01  1.04365455E-01  1.43649247E-01  1.99411035E-01
 -5.06743648E-02  3.66641707E-02  5.86300898E-02  8.04360764E-02  4.52807216E-03
 -1.11161307E-01 -2.90289336E-02 -1.09940381E-01 -7.34511567E-02 -1.17099573E-01
 -2.03534165E-01  2.16581925E-01 -1.50679063E-01 -3.00742016E-01  8.53480658E-01
  7.46824004E-02 -3.72156698E-02 -1.96473985E-02 -4.70425853E-02  1.30922272E-01
  2.84912974E-02  2.10676079E-01  8.26735493E-02 -4.92787029E-01 -3.00701511E-01
 -2.13203452E-01  3.48181796E-01 -3.79217039E-01  8.77201254E-01  1.29977023E-01
  1.05443883E-01 -3.46756414E-04 -1.85331229E-01 -4.34114737E-02  2.72822281E-01
  8.71593868E-02 -3.76860128E-01 -3.46001114E-01 -2.05931298E-02 -7.65337662E-02
 -2.50426950E-01  5.79684257E-01  8.86392681E-01  1.14738055E-01  4.57753597E-03
  1.59018842E-01 -4.12594753E-01 -9.10708798E-02 -2.08900302E-02 -1.24153023E-01
 -4.45855351E-01  8.01008574E-02 -1.27496051E-01  8.39259403E-02 -7.18927558E-02
 -1.03944041E-01  5.94871046E-01 -3.39640370E-01 -3.56587101E-01 -5.56881577E-01
 -2.38258210E-01  1.09699341E-01  4.27969428E-01  8.22426527E-01  5.41316427E-01
 -3.73168903E-01  1.04721048E-01 -2.36737742E-01 -3.28039878E-01 -3.81347166E-02
  1.07853194E-02 -4.48588708E-02 -3.71687355E-03  2.89328735E-01 -1.92882047E-01
  2.21903173E-02  2.94397839E-01 -8.03109130E-01  3.83823082E-01 -4.50988969E-01
  1.52419006E-01  9.31116832E-01 -3.50866556E-01 -4.63991665E-01  2.21291497E-01
 -9.14603977E-02  5.96997972E-01 -2.84673411E-01 -2.04655050E-01  5.53105448E-02
 -9.05093744E-02  7.53468957E-01  1.58369844E-01 -2.97452797E-01 -5.36638158E-01
 -2.07867763E-02  2.89564637E-01 -2.82179408E-01  8.07818629E-01 -5.17498422E-01
  1.12102906E-01 -4.97509534E-01 -1.68026091E-01 -4.72047215E-02  1.39603576E-02
  9.22367652E-02 -4.55264982E-01 -3.34925162E-01 -2.52666504E-01  1.06508549E+00
 -3.58393013E-01  8.37533791E-01 -3.77848997E-01  7.25978686E-01 -3.99570241E-01
  3.85533208E-03  1.43233529E-01 -1.26066271E-01 -2.67950465E-01  4.18400623E-01
 -2.22976899E-01  2.93888122E-01  7.61344571E-01 -1.33009839E+00  1.81477100E-01
 -5.83843367E-01  3.14788876E-01 -1.34115456E+00 -3.22004810E-01  2.08905434E+00
 -5.98520022E-03 -1.92341612E-01  3.93641346E-01 -3.30946586E-01 -1.03669593E-01
  3.43006514E-01 -1.20947466E+00  1.18687692E+00  3.93189114E-01 -3.94169576E-01
  2.20296700E+00  1.72416007E-01 -1.89899396E+00 -4.45419107E-03 -5.56063259E-01
 -8.26723360E-02 -1.62797046E+00 -1.40639655E-01 -1.06729516E-01 -1.02446345E-01
  4.66708705E+00  1.37555201E+00  9.52716311E-01  7.08708479E-01 -5.50407345E-01
 -1.86372785E+00 -5.58757127E-01 -1.04517391E+00 -5.40104867E-01 -6.24334856E-01
Total SCF Density                          R   N=         120
  2.07707598E+00 -1.40937099E-01  4.31647681E-01  2.23416971E-02 -3.55793091E-02
  5.47064147E-01  2.51322371E-02 -4.85562480E-02  3.17292763E-02  5.13422968E-01
  2.64157503E-02 -5.91963406E-02  3.14100162E-02  2.81541808E-02  4.80402185E-01
 -2.87158186E-01  5.23415491E-01 -2.31501171E-01 -1.75022852E-01 -1.33821337E-01
  7.33299123E-01  2.49287390E-02 -6.77285071E-02  2.71366655E-01  7.73353428E-02
  7.50455507E-02 -1.90955584E-01  1.52125855E-01  2.35384907E-02 -6.46963437E-02
  7.08656536E-02  2.84516740E-01  6.65732092E-02 -1.63030360E-01  7.72336633E-02
  1.69745982E-01  2.25438173E-02 -6.44571401E-02  6.41224450E-02  6.17825292E-02
  2.91484816E-01 -1.37847156E-01  7.44300037E-02  7.03797759E-02  1.85279976E-01
 -5.02550030E-02  1.06755613E-01  3.52820884E-01 -4.29678771E-02 -3.88090857E-02
  1.99255559E-02  1.50166450E-01 -2.80413497E-03 -5.36866770E-03  2.75139833E-01
  2.82886285E-02 -3.37666395E-02  2.36510810E-01 -5.50294387E-02 -4.92340378E-02
 -1.01313855E-01  1.04874246E-01 -1.08617427E-02 -1.38101217E-02  1.59014400E-01
  1.21316081E-01 -3.96606999E-02  8.20194278E-02 -4.42412033E-02  3.26236753E-01
 -3.74176886E-02  4.63197192E-02  2.21003607E-03  1.62150016E-01 -4.24145927E-03
 -3.41350700E-02 -6.47403087E-02  2.46047293E-01  2.37790107E-02 -3.37083045E-02
 -5.44579772E-02  2.43478411E-01 -4.44133767E-02 -6.68772501E-02 -1.79679850E-03
  1.24132884E-01 -9.50670540E-03 -6.54010834E-02 -4.83282205E-02  1.63515384E-01
  1.31541864E-01 -3.09620363E-02  6.01673698E-02 -4.12937173E-02 -3.85817512E-02
  3.01940271E-01  6.02283752E-02  3.19428830E-03 -5.18252396E-04  1.69041799E-01
 -3.27290683E-02 -5.78242000E-02 -3.10451414E-02 -5.25253115E-02  2.21251565E-01
  1.87698957E-02 -3.24583488E-02 -5.14815047E-02 -4.71894086E-02  2.54280454E-01
 -3.71659832E-02  6.50718919E-04 -4.07373120E-03  1.44344590E-01 -6.09539289E-02
 -4.77462164E-02 -5.49456758E-02 -4.50007271E-02  1.71311766E-01  1.50042332E-01
Grdnt Energy                               R     -5.647879632202876E+01
Grdnt NVar                                 I                0
Grdnt IGetFC                               I                4
Mulliken Charges                           R   N=           4
 -6.91126276E-01  2.44893922E-01  2.33199138E-01  2.13033217E-01
ONIOM Charges                              I   N=          16
           0           0           0           0           0           0
           0           0           0           0           0           0
           0           0           0           0
ONIOM Multiplicities                       I   N=          16
           1           0           0           0           0           0
           0           0           0           0           0           0
           0           0           0           0
Atom Layers                                I   N=           4
           1           1           1           1
Atom Modifiers                             I   N=           4
           0           0           0           0
Force Field                                I                0
Atom Modified Types                        C   N=           4
                                                
Int Atom Modified Types                    I   N=           4
           0           0           0           0
Link Atoms                                 I   N=           4
           0           0           0           0
Atom Modified MM Charges                   R   N=           4
  0.00000000E+00  0.00000000E+00  0.00000000E+00  0.00000000E+00
Link Distances                             R   N=          16
  0.00000000E+00  0.00000000E+00  0.00000000E+00  0.00000000E+00  0.00000000E+00
  0.00000000E+00  0.00000000E+00  0.00000000E+00  0.00000000E+00  0.00000000E+00
  0.00000000E+00  0.00000000E+00  0.00000000E+00  0.00000000E+00  0.00000000E+00
  0.00000000E+00
Cartesian Gradient                         R   N=          12
  1.16826129E-01 -1.59248560E-02 -8.22792861E-02 -1.76742244E-01  3.76535614E-02
  3.18121025E-02  3.38878174E-02 -4.47415497E-02  2.53146457E-02  2.60282976E-02
  2.30128443E-02  2.51525379E-02
Cartesian Force Constants                  R   N=          78
  9.74742473E-01 -4.57294468E-02  4.51769336E-01 -4.02648441E-02 -3.70536317E-02
  1.77992053E-01 -9.03413116E-01  4.58807088E-02  3.86851814E-02  9.40879702E-01
 -1.41330728E-02  5.26534531E-02  1.65618902E-02 -4.61289837E-02 -2.93064690E-02
 -1.29624079E-02  1.74663217E-02  5.24143408E-02 -3.81031689E-02 -8.43183481E-03
 -3.22417540E-02 -2.11435631E-02 -1.44410469E-02  1.49057229E-02 -2.15912599E-02
  6.71579484E-02 -7.58977571E-03  3.67635253E-02  4.47336618E-02 -4.55214166E-01
  3.11766347E-02  1.47184182E-03 -3.09027793E-02 -5.63924780E-04 -4.57439863E-02
  5.03608621E-01  1.66406708E-02 -1.05895165E-02 -2.01782500E-02 -1.34693875E-03
 -8.52185802E-03  1.06088714E-02 -7.66828083E-03 -3.26362279E-02  3.32426562E-02
 -5.01857938E-02  1.42897849E-02 -1.33260602E-02 -1.58753256E-02 -6.89589182E-03
  5.86553524E-02  5.97129770E-03 -4.61517237E-04 -7.62545121E-03  6.00898217E-02
  1.51288579E-02 -4.92086236E-02 -1.06848932E-02 -1.22356686E-03  7.55579519E-03
 -8.47056214E-03 -6.97291518E-03 -1.74916757E-02  5.17476024E-02 -6.93237581E-03
  5.91445041E-02  3.65865812E-02  3.01768264E-02 -2.10228144E-01  7.64926214E-04
  3.91802645E-04 -3.07814582E-02  3.52333648E-04  2.02351788E-03 -2.36732777E-02
 -3.77038410E-02 -3.25921470E-02  2.64682880E-01
Nonadiabatic coupling                      R   N=          12
  0.00000000E+00  0.00000000E+00  0.00000000E+00  0.00000000E+00  0.00000000E+00
  0.00000000E+00  0.00000000E+00  0.00000000E+00  0.00000000E+00  0.00000000E+00
  0.00000000E+00  0.00000000E+00
Dipole Moment                              R   N=           3
  6.77855413E-01  6.38188563E-01  5.88464626E-01
Dipole Derivatives                         R   N=          36
 -2.76235310E-01  1.24888247E-01  1.27543307E-01  7.46614019E-02 -1.99532843E-01
  7.69892371E-02  3.62781472E-02  3.67249491E-02 -1.33367245E-01 -1.63709178E-01
  1.20130085E-02  6.90339337E-03 -1.20351358E-01  2.19516896E-01  3.45492543E-02
 -8.86687478E-02  2.96255248E-02  1.96233841E-01  2.29398954E-01 -1.61140141E-01
  3.10946858E-02  2.41012617E-02 -2.14642420E-01  2.26079141E-02  2.37475264E-02
 -9.72782544E-02  1.90153307E-01  2.10545534E-01  2.42388848E-02 -1.65541386E-01
  2.15886948E-02  1.94658366E-01 -1.34146405E-01  2.86430743E-02  3.09277804E-02
 -2.53019903E-01
Polarizability                             R   N=           6
  6.85804507E+00 -9.71401360E-02  8.44606166E+00 -1.64347885E-01 -3.13526076E-01
  1.01979247E+01
Quadrupole Moment                          R   N=           6
 -8.86749980E-02 -1.71207213E-04  8.88462052E-02 -1.24074189E-01 -1.19136464E-01
 -1.07000858E-01
QEq coupling tensors                       R   N=          24
  2.11040932E-01  2.53505812E-01  5.30371437E-03  2.55399062E-01  2.35856681E-01
 -2.16344647E-01 -8.40244959E-01  5.85086990E-02  4.19401447E-01  5.06930802E-02
  1.22995961E-02  4.20843512E-01  2.29367026E-01  5.43567720E-02 -4.61869715E-01
  9.50948053E-03  4.10089863E-02  2.32502689E-01  1.26747375E-01  7.08719397E-03
  1.28063236E-01  4.38068648E-02  3.83456985E-02 -2.54810612E-01
Number of Normal Modes                     I                6
Vib-LE2Fix                                 I               14
Vib-NDFDPol                                I                0
Vib-NumROA                                 I                0
Vib-NDim                                   I                4
Vib-NDim0                                  I                4
Vib-LFlags                                 I                8
Vib-IFlags                                 I   N=          48
           0           0           1           0           0           0
           0           0           0           0           2           0
           0           0           0           0           0           0
           3           0           0           0           0           0
           0           0           4           0           0           0
           0           0           0           0           5           0
           0           0           0           0           0           0
           6           0           0           0           0           0
Vib-AtMass                                 R   N=           4
  1.40030740E+01  1.00782504E+00  1.00782504E+00  1.00782504E+00
Vib-E2                                     R   N=          84
  1.05898354E+03  1.33859137E+03  1.62128853E+03  2.77784069E+03  3.77032178E+03
  5.13973654E+03  1.15014804E+00  1.05849957E+00  1.04944651E+00  1.04042459E+00
  1.05770978E+00  1.06740673E+00  7.59945354E-01  1.11747272E+00  1.62529101E+00
  4.73015619E+00  8.85877266E+00  1.66135276E+01  1.49842524E+01  1.38561694E+00
  1.60660911E+00  6.02932482E+01  4.05757101E+01  2.05208492E+01  0.00000000E+00
  0.00000000E+00  0.00000000E+00  0.00000000E+00  0.00000000E+00  0.00000000E+00
  0.00000000E+00  0.00000000E+00  0.00000000E+00  0.00000000E+00  0.00000000E+00
  0.00000000E+00  0.00000000E+00  0.00000000E+00  0.00000000E+00  0.00000000E+00
  0.00000000E+00  0.00000000E+00  0.00000000E+00  0.00000000E+00  0.00000000E+00
  0.00000000E+00  0.00000000E+00  0.00000000E+00  0.00000000E+00  0.00000000E+00
  0.00000000E+00  0.00000000E+00  0.00000000E+00  0.00000000E+00  1.00000000E+02
  1.00000000E+02  1.00000000E+02  1.00000000E+02  1.00000000E+02  1.00000000E+02
  0.00000000E+00  0.00000000E+00  0.00000000E+00  0.00000000E+00  0.00000000E+00
  0.00000000E+00  0.00000000E+00  0.00000000E+00  0.00000000E+00  0.00000000E+00
  0.00000000E+00  0.00000000E+00  0.00000000E+00  0.00000000E+00  0.00000000E+00
  0.00000000E+00  0.00000000E+00  0.00000000E+00  0.00000000E+00  0.00000000E+00
  0.00000000E+00  0.00000000E+00  0.00000000E+00  0.00000000E+00
Vib-Modes                                  R   N=          72
 -6.00922377E-02 -4.60408710E-02 -7.22570877E-02  3.19886582E-03  3.80066124E-01
  5.98502932E-01  3.42059512E-01  5.14164405E-02  2.29047963E-01  4.89684217E-01
  2.08225421E-01  1.76414385E-01 -1.44389065E-02 -5.00695758E-02  3.44096210E-02
  6.52883482E-03  6.08992461E-01 -4.32670121E-01  5.48093215E-01  5.24000666E-02
  3.77208619E-02 -3.54002826E-01  3.42916926E-02 -8.31500661E-02  2.40231845E-02
 -3.24337111E-02 -3.96706865E-02  6.54486226E-03 -1.78972262E-01 -2.19091112E-01
 -1.61075035E-01  9.13014911E-03  6.82536198E-01 -1.79256365E-01  6.20487452E-01
  8.77533259E-02  8.48608550E-03  8.86445495E-03 -4.85590649E-02  2.33566905E-03
  7.67286606E-03 -1.55405424E-01  6.90557945E-03 -1.10370013E-02 -1.31781877E-01
 -1.27149892E-01 -1.19801706E-01  9.61883954E-01  5.48049660E-03 -6.16168739E-02
  3.46640541E-03  2.68840701E-03 -8.46354092E-02 -3.25658396E-03 -7.61718683E-02
  9.88928048E-01 -5.29828359E-02 -2.66447778E-03 -4.81662145E-02  8.07596921E-03
 -6.76088950E-02  2.88578608E-03  2.36485041E-03  9.95794770E-01 -3.62728555E-02
 -2.90492114E-02 -3.26455699E-02 -1.17443216E-03 -2.91371828E-03 -2.37675366E-02
 -2.64883480E-03 -8.95130130E-04
ClPar MaxAn                                I              200
ClPar NIntPar                              I                4
ClPar NRealPar                             I               16
ClPar NBits                                I               30
ClPar LenBitVec                            I                1
ClPar Read BitMap                          I   N=         200
           0           0           0           0           0           0
           0           0           0           0           0           0
           0           0           0           0           0           0
           0           0           0           0           0           0
           0           0           0           0           0           0