NH3 B3LYP Frequency                                                     
Freq      RB3LYP                                                      6-31G               
Number of atoms                            I                4
Info1-9                                    I   N=           9
          11          11           0           0           0         100
           6          18        -502
Full Title                                 C   N=           2
NH3 B3LYP Frequency     
Route                                      C   N=           5
#p RB3LYP/6-31G nosymm SCF(VeryTight) Freq Int(Grid=99590)  
Charge                                     I                0
Multiplicity                               I                1
Number of electrons                        I               10
Number of alpha electrons                  I                5
Number of beta electrons                   I                5
Number of basis functions                  I               15
Number of independent functions            I               15
Number of point charges in /Mol/           I                0
Number of translation vectors              I                0
Atomic numbers                             I   N=           4
           7           1           1           1
Nuclear charges                            R   N=           4
  7.00000000E+00  1.00000000E+00  1.00000000E+00  1.00000000E+00
Current cartesian coordinates              R   N=          12
  0.00000000E+00  0.00000000E+00  0.00000000E+00  1.88972612E+00  0.00000000E+00
  0.00000000E+00  0.00000000E+00  3.77945225E+00  0.00000000E+00  0.00000000E+00
  0.00000000E+00  2.83458919E+00
Number of symbols in /Mol/                 I                0
Force Field                                I                0
Atom Types                                 C   N=           4
                                                
Int Atom Types                             I   N=           4
           0           0           0           0
MM charges                                 R   N=           4
  0.00000000E+00  0.00000000E+00  0.00000000E+00  0.00000000E+00
Integer atomic weights                     I   N=           4
          14           1           1           1
Real atomic weights                        R   N=           4
  1.40030740E+01  1.00782504E+00  1.00782504E+00  1.00782504E+00
Atom fragment info                         I   N=           4
           0           0           0           0
Atom residue num                           I   N=           4
           0           0           0           0
Nuclear spins                              I   N=           4
           2           1           1           1
Nuclear ZEff                               R   N=           4
 -4.55000000E+00 -1.00000000E+00 -1.00000000E+00 -1.00000000E+00
Nuclear ZNuc                               R   N=           4
  7.00000000E+00  1.00000000E+00  1.00000000E+00  1.00000000E+00
Nuclear QMom                               R   N=           4
  2.04400000E+00  0.00000000E+00  0.00000000E+00  0.00000000E+00
Nuclear GFac                               R   N=           4
  4.03761000E-01  2.79284600E+00  2.79284600E+00  2.79284600E+00
MicOpt                                     I   N=           4
          -1          -1          -1          -1
Number of residues                         I                0
Number of secondary structures             I                0
Number of contracted shells                I                9
Number of primitive shells                 I               22
Pure/Cartesian d shells                    I                1
Pure/Cartesian f shells                    I                0
Highest angular momentum                   I                1
Largest degree of contraction              I                6
Shell types                                I   N=           9
           0          -1          -1           0           0           0
           0           0           0
Number of primitives per shell             I   N=           9
           6           3           1           3           1           3
           1           3           1
Shell to atom map                          I   N=           9
           1           1           1           2           2           3
           3           4           4
Primitive exponents                        R   N=          22
  4.17351146E+03  6.27457911E+02  1.42902093E+02  4.02343293E+01  1.28202129E+01
  4.39043701E+00  1.16263619E+01  2.71627981E+00  7.72218397E-01  2.12031498E-01
  1.87311370E+01  2.82539436E+00  6.40121692E-01  1.61277759E-01  1.87311370E+01
  2.82539436E+00  6.40121692E-01  1.61277759E-01  1.87311370E+01  2.82539436E+00
  6.40121692E-01  1.61277759E-01
Contraction coefficients                   R   N=          22
  1.83477216E-03  1.39946270E-02  6.85865518E-02  2.32240873E-01  4.69069948E-01
  3.60455199E-01 -1.14961182E-01 -1.69117479E-01  1.14585195E+00  1.00000000E+00
  3.34946043E-02  2.34726953E-01  8.13757326E-01  1.00000000E+00  3.34946043E-02
  2.34726953E-01  8.13757326E-01  1.00000000E+00  3.34946043E-02  2.34726953E-01
  8.13757326E-01  1.00000000E+00
P(S=P) Contraction coefficients            R   N=          22
  0.00000000E+00  0.00000000E+00  0.00000000E+00  0.00000000E+00  0.00000000E+00
  0.00000000E+00  6.75797439E-02  3.23907296E-01  7.40895140E-01  1.00000000E+00
  0.00000000E+00  0.00000000E+00  0.00000000E+00  0.00000000E+00  0.00000000E+00
  0.00000000E+00  0.00000000E+00  0.00000000E+00  0.00000000E+00  0.00000000E+00
  0.00000000E+00  0.00000000E+00
Coordinates of each shell                  R   N=          27
  0.00000000E+00  0.00000000E+00  0.00000000E+00  0.00000000E+00  0.00000000E+00
  0.00000000E+00  0.00000000E+00  0.00000000E+00  0.00000000E+00  1.88972612E+00
  0.00000000E+00  0.00000000E+00  1.88972612E+00  0.00000000E+00  0.00000000E+00
  0.00000000E+00  3.77945225E+00  0.00000000E+00  0.00000000E+00  3.77945225E+00
  0.00000000E+00  0.00000000E+00  0.00000000E+00  2.83458919E+00  0.00000000E+00
  0.00000000E+00  2.83458919E+00
Num ILSW                                   I              100
ILSW                                       I   N=         100
           0           1           0           0           2           0
           0           0           0           0         402          -1
       99590           0           0           0           2           0
           0           0           0           0           1           0
           1           1           0           0           0           0
           0           0      100000           0          -1           0
           0           0           0           0           0           0
           0           0           0           1           0           0
           0 -2000000000           1           0           0           0
           0           0           4          52           0           0
           0           0           5           0           0           0
           0           0           0           4           0           1
           0           0           0           0           0           0
           0           0           0           0           0           0
           0           0           0           0           0           0
           0           0           0           0           0           0
           0           0           0           0
Num RLSW                                   I               52
RLSW                                       R   N=          52
  8.00000000E-01  7.20000000E-01  1.00000000E+00  8.10000000E-01  2.00000000E-01
  0.00000000E+00  0.00000000E+00  1.00000000E+00  0.00000000E+00  0.00000000E+00
  0.00000000E+00  0.00000000E+00  1.00000000E+00  0.00000000E+00  0.00000000E+00
  0.00000000E+00  0.00000000E+00  1.00000000E+00  0.00000000E+00  0.00000000E+00
  0.00000000E+00  0.00000000E+00  1.00000000E+00  0.00000000E+00  0.00000000E+00
  0.00000000E+00  0.00000000E+00  1.00000000E+00  0.00000000E+00  0.00000000E+00
  0.00000000E+00  0.00000000E+00  1.00000000E+00  0.00000000E+00  0.00000000E+00
  0.00000000E+00  0.00000000E+00  0.00000000E+00  1.00000000E+00  1.00000000E+00
  0.00000000E+00  1.00000000E+00  0.00000000E+00  0.00000000E+00  0.00000000E+00
  0.00000000E+00  0.00000000E+00  0.00000000E+00  0.00000000E+00  0.00000000E+00
  0.00000000E+00  0.00000000E+00
MxBond                                     I                1
NBond                                      I   N=           4
           1           1           0           0
IBond                                      I   N=           4
           2           1           0           0
RBond                                      R   N=           4
  1.00000000E+00  1.00000000E+00  0.00000000E+00  0.00000000E+00
Virial Ratio                               R      2.014159193142215E+00
SCF Energy                                 R     -5.631365179137229E+01
Total Energy                               R     -5.631365179137229E+01
RMS Force                                  R      4.992778012944648E-02
RMS Density                                R      1.357047729375730E-09
NImag                                      I                2
Job Status                                 I                1
Nuclear derivative order                   I                2
External E-field                           R   N=          35
  0.00000000E+00  0.00000000E+00  0.00000000E+00  0.00000000E+00  0.00000000E+00
  0.00000000E+00  0.00000000E+00  0.00000000E+00  0.00000000E+00  0.00000000E+00
  0.00000000E+00  0.00000000E+00  0.00000000E+00  0.00000000E+00  0.00000000E+00
  0.00000000E+00  0.00000000E+00  0.00000000E+00  0.00000000E+00  0.00000000E+00
  0.00000000E+00  0.00000000E+00  0.00000000E+00  0.00000000E+00  0.00000000E+00
  0.00000000E+00  0.00000000E+00  0.00000000E+00  0.00000000E+00  0.00000000E+00
  0.00000000E+00  0.00000000E+00  0.00000000E+00  0.00000000E+00  0.00000000E+00
IOpCl                                      I                0
IROHF                                      I                0
Alpha Orbital Energies                     R   N=          15
 -1.44170770E+01 -8.24314297E-01 -4.01338861E-01 -3.30962032E-01 -2.97727240E-01
 -1.23045159E-01 -3.62477274E-02  1.18383373E-01  6.61383423E-01  7.24989518E-01
  7.43609539E-01  7.88877149E-01  8.10652047E-01  9.07420038E-01  1.13344150E+00
Alpha MO coefficients                      R   N=         225
  9.95280875E-01  2.90175451E-02  2.18384315E-03  6.36854025E-04  1.19274267E-03
 -1.40558193E-02 -3.30160323E-03 -6.31573079E-04 -1.46084398E-03 -4.76007816E-04
  5.09835896E-03  2.62115775E-05  9.27934452E-04  5.71041147E-04  1.42523658E-03
 -2.00282424E-01  4.39318416E-01  1.69099956E-01  1.08323272E-02  4.15906169E-02
  4.45870415E-01  6.92541298E-02  9.42809010E-03  3.34890480E-02  2.13244334E-01
  2.19193030E-02  1.85163369E-02  1.03591655E-02  5.86986870E-02  1.75717342E-02
  5.71124248E-02 -1.05860363E-01  4.30021742E-01 -2.92491433E-02 -2.22540698E-01
 -2.77263437E-01  1.89090002E-01 -1.82310403E-02 -1.32602712E-01  2.62759118E-01
  2.22330086E-01 -3.77748311E-02 -6.11522259E-02 -1.76002417E-01 -2.15809085E-01
  7.29503069E-02 -1.61107943E-01  2.33490691E-01 -1.18541468E-01  3.88255249E-01
 -3.10412921E-01  1.36891996E-01 -8.20890479E-02  2.64373006E-01  9.80345844E-02
  9.77300244E-02 -9.08127626E-02 -1.57992228E-01  2.09443144E-01  2.74697711E-01
  5.16862759E-02 -1.20568310E-01  1.16455550E-01  4.08966391E-01  9.42846017E-02
 -2.17109844E-01  7.03434946E-02  3.10092005E-01  6.76817618E-02  3.74288642E-02
  6.68192662E-02  2.42062446E-01  3.98467573E-01  4.20034071E-02  6.76893401E-02
  3.17314974E-02 -7.27230357E-02  1.03435224E-02 -4.82816804E-01 -3.86415479E-02
 -1.97386815E-01 -1.56250670E-02 -4.27386323E-01 -4.72883588E-02 -1.65666478E-03
  1.02653429E-01  2.81814455E-01  6.09269837E-01  1.18479486E-02  8.00444467E-02
  4.83595856E-02 -9.47360402E-02 -9.89199002E-03  5.50933372E-02 -4.71588518E-01
 -4.32802334E-01 -5.15116297E-02  4.30098811E-02 -5.26644541E-01 -2.31824377E-03
  1.99182971E-01 -5.73674903E-02 -9.50297832E-02  2.61150487E-01  8.75536567E-01
  5.78526818E-02 -8.95778816E-02 -3.88551734E-01  3.76945841E-02  9.81147099E-02
 -1.01713308E+00 -7.71392101E-01  1.82594027E-02  9.85427257E-02  1.15784620E-01
  1.80736849E+00 -5.26750516E-02 -8.42450646E-02 -8.11666272E-02 -2.07901942E-01
  2.08738065E-02  2.03249643E-02  4.30446098E-01  2.90476249E-01  5.14211115E-01
 -4.61624255E-01 -5.39651312E-01 -3.78421377E-01 -7.11404217E-01  6.75033328E-02
  7.94469105E-02 -3.77589401E-01  4.11759270E-01 -7.09806450E-01  1.02188230E+00
  1.98743984E-02  5.93270341E-02  2.26488947E-01 -7.95059786E-01 -7.36776051E-02
 -4.01201738E-01 -7.40609242E-01  9.47641193E-01  3.74272063E-02  5.66608963E-01
  9.45372804E-02  6.92878170E-02 -3.36765970E-01 -2.72956500E-01  3.44934478E-01
 -3.69223618E-02  2.48691267E-01 -4.31278793E-01 -4.33824315E-01  5.44681194E-01
 -1.79152811E-02  9.93183844E-01  5.15540364E-01 -7.72213206E-01 -5.21294528E-01
 -2.38567586E-01 -2.27356509E-02 -1.53782493E-01 -1.90420482E-01  5.82820671E-01
  3.38724617E-02 -6.07532904E-01  4.36960048E-01 -1.29450428E-01  4.84184018E-01
  6.73846281E-01 -4.65974517E-01  2.07122175E-01 -5.05555654E-01 -2.32755700E-01
  3.67008501E-01  1.76698120E-01 -3.02449366E-01  7.95200593E-01 -7.33191394E-01
  3.20509370E-03 -3.98772564E-02 -1.23325814E-01  2.07018522E-01  1.95798508E-01
  4.52126411E-02  4.54901111E-03 -5.82282471E-02 -3.42511047E-01  2.89880788E-01
 -2.16908023E-01  1.18066183E+00 -1.08458794E+00 -2.92744949E-01  5.49196514E-01
 -4.29991323E-02  4.18855199E-01  6.22318720E-01 -9.87214387E-02 -2.97523746E-01
 -6.83925204E-01 -5.19336224E-01  1.99672045E-01  4.39922719E-01 -1.06059300E+00
  1.38600101E+00  3.41504654E-01 -4.62548721E-01 -2.61760468E-01 -5.37351683E-02
  3.13075236E-02 -1.59400116E+00 -1.61320782E-01 -1.06374079E-01 -2.50648974E-01
  2.53333525E+00  9.05817975E-01  1.95802620E-01  4.75839434E-01 -3.55566803E-01
 -1.03424266E+00  1.16244419E-02 -2.70141210E-01 -5.62813048E-01 -2.13954380E-02
Orthonormal basis                          R   N=         225
  5.37439999E-02  1.90100143E-01  8.10032016E-02  1.01903533E-02  3.40471374E-02
  2.49247336E-01  1.28458192E-01  2.51170309E-02  7.19059329E-02  2.02285617E-01
  2.61884432E-01  5.13452802E-02  1.05720509E-01  1.14460179E-01  1.90005263E-01
 -4.83620478E-03 -1.21650592E-02 -1.96777229E-01  1.68151877E-02  2.08186000E-01
  1.36926281E-02 -2.50093382E-01  2.84612292E-02  3.22842900E-01 -2.08521999E-01
 -1.25633733E-01  3.24087486E-02  4.35850093E-02  2.76106684E-01  2.80226644E-01
  8.50605173E-03  1.85504557E-02 -9.39369907E-02  2.32160802E-01 -9.18989876E-02
  3.81457444E-02 -1.11921428E-01  3.53505789E-01 -1.30591019E-01 -8.02325756E-02
 -2.64662685E-02  3.35973074E-01  3.84588763E-01 -9.57117880E-02 -7.38080113E-02
  1.74591783E-01  3.25553694E-01 -3.07199953E-01 -1.51941754E-01 -2.01443050E-01
  2.85987391E-01 -3.24851421E-01 -1.81175113E-01 -2.33440622E-01 -1.10925436E-01
  1.02244559E-02 -8.43411891E-02 -6.26463630E-02 -8.70568314E-02 -2.90325967E-02
  1.27097622E-01  1.31227537E-01 -3.10008720E-02  5.77336777E-01 -7.79892473E-04
  4.96767462E-02 -2.83642136E-02  3.53031679E-01 -1.53268129E-04  2.61484810E-02
 -1.08516558E-02 -4.55181180E-01 -2.99847440E-01  7.83026131E-03 -5.20682736E-03
  4.82188397E-01  1.80555985E-01  3.16759892E-02 -5.47904700E-02  6.13094632E-01
  2.11356153E-03  7.42219942E-03 -1.27942107E-02  2.15861585E-01  2.76475687E-02
 -5.87508288E-02  8.31209139E-02  2.92846515E-02 -4.23425917E-01 -2.57392534E-01
  8.17105098E-01 -1.31998273E-01  2.75729676E-01 -4.32976359E-02 -3.60701970E-01
 -1.57867807E-01  9.95289077E-02  2.11718784E-03 -3.49941053E-02 -1.42869033E-01
 -1.34645397E-01  8.43935664E-02  1.50504205E-02  3.15512120E-01  1.19551370E-01
 -2.83842287E-01  5.02358953E-01  9.24512924E-01 -1.24975483E-02  7.98606079E-03
  1.77601832E-01 -2.65691044E-01  7.84553975E-03 -3.53329877E-03 -3.47078422E-01
 -3.62770543E-01  1.68367235E-02  1.20428078E-03  3.48142457E-03 -8.07180458E-03
 -9.16447444E-03  2.81891774E-02 -1.01412963E-02  9.14457158E-01 -1.37566384E-02
  1.80899665E-02  1.31660776E-02 -9.11211914E-01  1.54933673E-02 -5.60180243E-03
  2.46616577E-03  6.41509499E-01 -2.74780527E-01  1.08314267E-02 -1.03329555E-02
 -4.08147138E-02  2.66206023E-01 -8.36024756E-02 -7.18456255E-02 -8.02226417E-01
 -1.71550991E-01 -9.94176342E-02  1.01921127E-01  9.77391903E-01  4.79335813E-01
 -3.06368724E-01  1.59385837E-01 -1.34535329E-01 -5.83829483E-01  1.32785688E-01
 -1.20510786E-01  7.61609121E-01 -3.74829080E-01 -2.01863782E-01  6.18552401E-02
 -2.38587781E-01  5.02985997E-01  3.11620745E-01 -2.09239127E-02  1.28772583E-01
 -3.58520935E-01  4.73719852E-01 -4.53163342E-01  7.45022231E-01 -5.96338062E-01
  8.53203447E-02 -3.39601968E-01  2.17565743E-01 -3.58411100E-02  2.12993741E-01
  9.68769588E-02 -8.69346486E-01  6.07611295E-02 -2.76180958E-01  1.15508700E+00
 -3.80750109E-01  1.36777425E-01 -1.15483822E-01  3.64764390E-01 -1.53604953E-01
 -1.32592981E-02  2.96811927E-01 -1.14423781E-01  3.17086950E-01 -1.39039975E-01
 -1.72747009E-01  1.32971752E-01 -6.79285995E-01  3.42382226E-01  2.57138046E-01
 -3.46839430E-01 -8.91780553E-01  1.31926154E+00  4.71085286E-01 -7.12140881E-01
 -1.29255687E-02  6.05011165E-01 -2.84374794E-01  7.08673651E-02  3.43504847E-01
 -6.65225606E-01  5.66894966E-01 -1.69789489E-01 -9.23326698E-01  4.71096260E-01
 -1.10091136E+00 -1.52836895E-01  3.36462523E-01 -4.61601933E-01  1.46347235E+00
 -2.40218210E-02 -1.31801998E+00 -3.23614328E-01 -2.25131131E-02 -7.19792820E-02
  2.93654806E+00  1.46948114E+00  6.18112456E-02  2.19912518E-01 -1.07997304E-01
 -2.16498438E+00  7.83594753E-03 -1.20018131E-01 -1.54346675E-01 -2.02856957E-01
Total SCF Density                          R   N=         120
  2.08390423E+00 -1.66275385E-01  4.91083184E-01  3.18354880E-02 -4.56564339E-02
  5.63196122E-01  1.85682953E-02 -4.46735379E-02  1.84068915E-02  3.64557692E-01
  2.66879301E-02 -6.41087327E-02  2.59443786E-02 -1.00941277E-03  4.21774577E-01
 -3.05982000E-01  6.02017963E-01 -2.83251017E-01 -7.81264907E-02 -1.21519803E-01
  8.38731744E-01  1.45301747E-02 -4.04478202E-02  2.66342738E-01  1.55162144E-02
  4.11550147E-02 -1.58536558E-01  1.28499379E-01  1.29619749E-02 -3.62170400E-02
  2.13961460E-02  2.74366266E-01  3.62782532E-03 -6.51502823E-02  1.55666673E-02
  2.06634644E-01  1.40996599E-02 -4.40910605E-02  3.64966194E-02  1.16150263E-03
  2.79852286E-01 -9.00819619E-02  3.64035020E-02  4.03918129E-03  1.86362074E-01
 -3.81796633E-02  9.10913799E-02  3.52599327E-01 -3.37973177E-03 -1.60295884E-02
 -3.26496848E-02  1.61015543E-01  1.55848246E-03  1.50084548E-03  2.51054853E-01
  4.79302653E-02 -7.51196349E-02  2.59849967E-01  1.89589860E-02 -8.63110234E-03
 -1.93572559E-01  1.23240649E-01  1.76953680E-02  3.20932468E-03  1.50345778E-01
  1.27906176E-01  9.33325924E-05 -4.84043384E-03 -1.22544986E-02  2.22131913E-01
 -6.51839216E-03 -1.12711740E-02 -2.52923715E-03  1.66759188E-01 -3.99225799E-03
 -1.16397178E-02 -1.38636226E-03  1.37221958E-01  8.85193625E-03 -2.30745273E-02
 -3.00579604E-02  3.67179862E-01 -1.94622911E-02 -3.18146495E-02 -8.89438597E-03
  2.75485980E-01 -1.26907578E-02 -2.88684540E-02 -4.35891298E-03  2.26607198E-01
  3.75171437E-01 -7.57990485E-03  1.12568602E-02 -2.39262383E-02 -3.73117811E-03
  2.53774742E-01  1.65961041E-03  4.81740050E-03 -8.12609185E-04  1.67034610E-01
 -2.32490756E-02 -2.91311327E-02 -2.23460381E-03 -9.96370902E-03  1.60106859E-01
  1.82234265E-02 -4.36212023E-02 -3.56118985E-02  3.24615302E-03  3.23587428E-01
 -6.46301769E-02  5.54058364E-03  5.07888305E-03  2.12814484E-01 -4.69919991E-02
 -3.24385199E-02 -1.66915075E-04 -6.09507872E-03  1.98783815E-01  2.53850075E-01
Grdnt Energy                               R     -5.631365179137229E+01
Grdnt NVar                                 I                0
Grdnt IGetFC                               I                4
Mulliken Charges                           R   N=           4
 -4.42545061E-01  2.82169684E-01  2.62968622E-02  1.34078514E-01
ONIOM Charges                              I   N=          16
           0           0           0           0           0           0
           0           0           0           0           0           0
           0           0           0           0
ONIOM Multiplicities                       I   N=          16
           1           0           0           0           0           0
           0           0           0           0           0           0
           0           0           0           0
Atom Layers                                I   N=           4
           1           1           1           1
Atom Modifiers                             I   N=           4
           0           0           0           0
Force Field                                I                0
Atom Modified Types                        C   N=           4
                                                
Int Atom Modified Types                    I   N=           4
           0           0           0           0
Link Atoms                                 I   N=           4
           0           0           0           0
Atom Modified MM Charges                   R   N=           4
  0.00000000E+00  0.00000000E+00  0.00000000E+00  0.00000000E+00
Link Distances                             R   N=          16
  0.00000000E+00  0.00000000E+00  0.00000000E+00  0.00000000E+00  0.00000000E+00
  0.00000000E+00  0.00000000E+00  0.00000000E+00  0.00000000E+00  0.00000000E+00
  0.00000000E+00  0.00000000E+00  0.00000000E+00  0.00000000E+00  0.00000000E+00
  0.00000000E+00
Cartesian Gradient                         R   N=          12
  3.83545361E-02 -6.66895957E-02 -9.71737064E-02 -4.37636438E-02 -1.18966173E-03
  9.00592415E-03 -5.94857315E-04  6.83865863E-02 -3.80451324E-04  6.00396499E-03
 -5.07328905E-04  8.85482335E-02
Cartesian Force Constants                  R   N=          78
  5.79953701E-01  8.65438285E-03  7.74434935E-03  1.52558840E-03  5.14495883E-03
  5.81423127E-03 -5.09873776E-01  1.23749777E-03  1.37481832E-02  5.15146627E-01
 -1.31306093E-02 -4.03156235E-04  1.35254174E-03  1.21591210E-04  3.39999953E-03
 -1.73821278E-02  6.89503110E-04 -3.62536057E-03 -1.22940038E-02 -4.08081060E-04
  2.16581934E-02 -2.42106118E-02 -1.03515791E-02  6.76329258E-04 -2.54032263E-04
  1.32811668E-02 -2.03996011E-04  2.47348089E-02  2.72772873E-03  3.46315946E-02
  5.82906863E-04 -6.76019642E-04 -4.98006502E-03  4.21412488E-04 -2.33258510E-03
 -2.83869062E-02  1.31143301E-03 -5.76831668E-03 -2.29559433E-02 -5.12291525E-04
 -8.95242936E-04 -8.42004178E-04 -4.47661093E-04 -8.48054126E-04  2.37281858E-02
 -4.58693135E-02  4.59698473E-04 -1.59501009E-02 -5.01881839E-03 -2.72148672E-04
  2.98801276E-02 -2.70164845E-04  2.80876008E-04 -3.51480397E-04  5.11582967E-02
  1.74849773E-03 -4.19727877E-02 -7.08040744E-03 -6.83069334E-04  1.98322173E-03
 -7.02834538E-04 -5.97002593E-04 -1.26462338E-03  7.51161375E-03 -4.68425808E-04
  4.12541894E-02  1.45451064E-02 -6.61452582E-05  2.07670726E-02 -9.41887929E-04
 -4.92177436E-05 -1.71908287E-02 -2.46721535E-05 -1.56265225E-04  6.97616463E-05
 -1.35785463E-02  2.71628227E-04 -3.64600555E-03
Nonadiabatic coupling                      R   N=          12
  0.00000000E+00  0.00000000E+00  0.00000000E+00  0.00000000E+00  0.00000000E+00
  0.00000000E+00  0.00000000E+00  0.00000000E+00  0.00000000E+00  0.00000000E+00
  0.00000000E+00  0.00000000E+00
Dipole Moment                              R   N=           3
  7.09161430E-01  1.71332684E-01  4.37272535E-01
Dipole Derivatives                         R   N=          36
  7.40038429E-03  8.84495538E-02  1.51619203E-01 -2.63507480E-02 -5.57006427E-02
 -6.36876396E-02  7.86793312E-03 -6.92293129E-02  8.22139149E-02 -1.90252594E-01
 -1.69733095E-02 -7.36441609E-03  1.16606791E-02  1.55674400E-01  2.57511011E-02
 -3.38605527E-02  5.74838304E-02  1.39576625E-01  5.11629086E-02 -1.09798684E-01
  1.28755298E-02  1.25739659E-02 -1.97838239E-01  2.69562906E-02  1.58708141E-03
 -4.22990916E-02  5.35679190E-02  1.31689301E-01  3.83224394E-02 -1.57130317E-01
  2.11610294E-03  9.78644814E-02  1.09802479E-02  2.44055382E-02  5.40445742E-02
 -2.75358458E-01
Polarizability                             R   N=           6
  8.48667233E+00 -1.29503283E+00  3.20030043E+01 -6.43601094E-01 -4.99536928E+00
  1.93548724E+01
Quadrupole Moment                          R   N=           6
 -3.02741809E-01  1.63057227E-01  1.39684582E-01 -7.14128335E-02 -8.60357685E-02
  4.33477408E-03
QEq coupling tensors                       R   N=          24
  7.93014415E-01  1.47909611E-01 -6.06435122E-01  2.12094227E-01 -3.24405201E-03
 -1.86579293E-01 -4.65910059E-01  9.89214385E-03  2.33535801E-01  2.25831146E-02
  2.87641483E-04  2.32374259E-01 -1.10905482E-02  7.83140061E-03  2.13649617E-02
  3.95729578E-04  3.35498079E-03 -1.02744135E-02  7.02391732E-03  1.04478448E-03
  1.28597790E-02  1.92945766E-02  2.53254053E-03 -1.98836963E-02
Number of Normal Modes                     I                6
Vib-LE2Fix                                 I               14
Vib-NDFDPol                                I                0
Vib-NumROA                                 I                0
Vib-NDim                                   I                4
Vib-NDim0                                  I                4
Vib-LFlags                                 I                8
Vib-IFlags                                 I   N=          48
           0           0           1           0           0           0
           0           0           0           0           2           0
           0           0           0           0           0           0
           3           0           0           0           0           0
           0           0           4           0           0           0
           0           0           0           0           5           0
           0           0           0           0           0           0
           6           0           0           0           0           0
Vib-AtMass                                 R   N=           4
  1.40030740E+01  1.00782504E+00  1.00782504E+00  1.00782504E+00
Vib-E2                                     R   N=          84
 -9.10425699E+02 -5.63299382E+02  7.25488958E+02  1.08782189E+03  1.33500614E+03
  3.80454536E+03  1.08448633E+00  1.10180085E+00  1.04695654E+00  1.07330634E+00
  1.03856694E+00  1.07348212E+00  5.29618688E-01  2.05983226E-01  3.24668734E-01
  7.48323674E-01  1.09056416E+00  9.15483562E+00  3.16979296E+01  6.83536489E+01
  1.32312160E+01  7.08537988E+00  1.36363497E+01  3.40107118E+01  0.00000000E+00
  0.00000000E+00  0.00000000E+00  0.00000000E+00  0.00000000E+00  0.00000000E+00
  0.00000000E+00  0.00000000E+00  0.00000000E+00  0.00000000E+00  0.00000000E+00
  0.00000000E+00  0.00000000E+00  0.00000000E+00  0.00000000E+00  0.00000000E+00
  0.00000000E+00  0.00000000E+00  0.00000000E+00  0.00000000E+00  0.00000000E+00
  0.00000000E+00  0.00000000E+00  0.00000000E+00  0.00000000E+00  0.00000000E+00
  0.00000000E+00  0.00000000E+00  0.00000000E+00  0.00000000E+00  1.00000000E+02
  1.00000000E+02  1.00000000E+02  1.00000000E+02  1.00000000E+02  1.00000000E+02
  0.00000000E+00  0.00000000E+00  0.00000000E+00  0.00000000E+00  0.00000000E+00
  0.00000000E+00  0.00000000E+00  0.00000000E+00  0.00000000E+00  0.00000000E+00
  0.00000000E+00  0.00000000E+00  0.00000000E+00  0.00000000E+00  0.00000000E+00
  0.00000000E+00  0.00000000E+00  0.00000000E+00  0.00000000E+00  0.00000000E+00
  0.00000000E+00  0.00000000E+00  0.00000000E+00  0.00000000E+00
Vib-Modes                                  R   N=          72
 -2.88958291E-03 -7.67491717E-02  6.27412371E-04 -1.70681597E-03  8.88694419E-02
 -3.86854218E-03  4.44347210E-02  9.91889991E-01 -1.07846729E-02 -2.57902812E-03
 -1.43795639E-02  5.93572789E-03 -1.09229980E-02  1.63906451E-03 -8.43181680E-02
 -6.05276999E-04 -4.34317719E-04  2.28885593E-01 -2.17158860E-04 -2.77400782E-03
 -1.46740580E-02  1.52590395E-01 -1.95654107E-02  9.57334620E-01 -2.80704019E-02
 -4.68664943E-02  5.17687936E-03 -3.20950402E-02  8.77799080E-01 -2.51767587E-02
  4.38899540E-01 -1.51824235E-01 -5.60965208E-02 -1.67845058E-02 -7.47953610E-02
  9.34390471E-03 -2.64861531E-03 -5.71516587E-02 -4.20182987E-02  6.21362091E-04
  4.68707521E-02  1.91160759E-02  2.34353760E-02 -4.81162073E-02  5.96497962E-01
  1.27440506E-02  7.95330615E-01 -3.17970798E-02 -3.69812865E-02  1.60921159E-03
 -3.15502906E-02 -1.77219683E-02  1.43577920E-02  7.86561027E-01  7.17889601E-03
  4.27427775E-03 -3.07432644E-02  5.24374018E-01 -4.09910192E-02 -3.17446975E-01
 -7.10637171E-02  3.26308670E-05  1.52925821E-03  9.97248958E-01  2.88636742E-03
 -1.69619534E-02  1.44318371E-03 -1.57971173E-03 -1.32003029E-03 -1.13079689E-02
 -1.76004038E-03 -2.96606539E-03
ClPar MaxAn                                I              200
ClPar NIntPar                              I                4
ClPar NRealPar                             I               16
ClPar NBits                                I               30
ClPar LenBitVec                            I                1
ClPar Read BitMap                          I   N=         200
           0           0           0           0           0           0
           0           0           0           0           0           0
           0           0           0           0           0           0
           0           0           0           0           0           0
           0           0           0           0           0           0
           0           0           0           0           0           0
           0           0           0           0           0           0
           0           0           0           0           0           0
           0           0           0           0           0           0