NH3 B2PLYP Freq                                                         
Freq      RB2PLYP-Full                                                6-31G               
Number of atoms                            I                4
Info1-9                                    I   N=           9
          11          11           0           0           0         100
           6           2       -4702
Full Title                                 C   N=           2
NH3 B2PLYP Freq         
Route                                      C   N=           6
#p RB2PLYP(Full)/6-31G nosymm SCF(VeryTight) Freq Int(Grid=9
9590)       
Charge                                     I                0
Multiplicity                               I                1
Number of electrons                        I               10
Number of alpha electrons                  I                5
Number of beta electrons                   I                5
Number of basis functions                  I               15
Number of independent functions            I               15
Number of point charges in /Mol/           I                0
Number of translation vectors              I                0
Atomic numbers                             I   N=           4
           7           1           1           1
Nuclear charges                            R   N=           4
  7.00000000E+00  1.00000000E+00  1.00000000E+00  1.00000000E+00
Current cartesian coordinates              R   N=          12
  0.00000000E+00  0.00000000E+00  0.00000000E+00  1.88972612E+00  0.00000000E+00
  0.00000000E+00  0.00000000E+00  3.77945225E+00  0.00000000E+00  0.00000000E+00
  0.00000000E+00  2.83458919E+00
Number of symbols in /Mol/                 I                0
Force Field                                I                0
Atom Types                                 C   N=           4
                                                
Int Atom Types                             I   N=           4
           0           0           0           0
MM charges                                 R   N=           4
  0.00000000E+00  0.00000000E+00  0.00000000E+00  0.00000000E+00
Integer atomic weights                     I   N=           4
          14           1           1           1
Real atomic weights                        R   N=           4
  1.40030740E+01  1.00782504E+00  1.00782504E+00  1.00782504E+00
Atom fragment info                         I   N=           4
           0           0           0           0
Atom residue num                           I   N=           4
           0           0           0           0
Nuclear spins                              I   N=           4
           2           1           1           1
Nuclear ZEff                               R   N=           4
 -4.55000000E+00 -1.00000000E+00 -1.00000000E+00 -1.00000000E+00
Nuclear ZNuc                               R   N=           4
  7.00000000E+00  1.00000000E+00  1.00000000E+00  1.00000000E+00
Nuclear QMom                               R   N=           4
  2.04400000E+00  0.00000000E+00  0.00000000E+00  0.00000000E+00
Nuclear GFac                               R   N=           4
  4.03761000E-01  2.79284600E+00  2.79284600E+00  2.79284600E+00
MicOpt                                     I   N=           4
          -1          -1          -1          -1
Number of residues                         I                0
Number of secondary structures             I                0
Number of contracted shells                I                9
Number of primitive shells                 I               22
Pure/Cartesian d shells                    I                1
Pure/Cartesian f shells                    I                0
Highest angular momentum                   I                1
Largest degree of contraction              I                6
Shell types                                I   N=           9
           0          -1          -1           0           0           0
           0           0           0
Number of primitives per shell             I   N=           9
           6           3           1           3           1           3
           1           3           1
Shell to atom map                          I   N=           9
           1           1           1           2           2           3
           3           4           4
Primitive exponents                        R   N=          22
  4.17351146E+03  6.27457911E+02  1.42902093E+02  4.02343293E+01  1.28202129E+01
  4.39043701E+00  1.16263619E+01  2.71627981E+00  7.72218397E-01  2.12031498E-01
  1.87311370E+01  2.82539436E+00  6.40121692E-01  1.61277759E-01  1.87311370E+01
  2.82539436E+00  6.40121692E-01  1.61277759E-01  1.87311370E+01  2.82539436E+00
  6.40121692E-01  1.61277759E-01
Contraction coefficients                   R   N=          22
  1.83477216E-03  1.39946270E-02  6.85865518E-02  2.32240873E-01  4.69069948E-01
  3.60455199E-01 -1.14961182E-01 -1.69117479E-01  1.14585195E+00  1.00000000E+00
  3.34946043E-02  2.34726953E-01  8.13757326E-01  1.00000000E+00  3.34946043E-02
  2.34726953E-01  8.13757326E-01  1.00000000E+00  3.34946043E-02  2.34726953E-01
  8.13757326E-01  1.00000000E+00
P(S=P) Contraction coefficients            R   N=          22
  0.00000000E+00  0.00000000E+00  0.00000000E+00  0.00000000E+00  0.00000000E+00
  0.00000000E+00  6.75797439E-02  3.23907296E-01  7.40895140E-01  1.00000000E+00
  0.00000000E+00  0.00000000E+00  0.00000000E+00  0.00000000E+00  0.00000000E+00
  0.00000000E+00  0.00000000E+00  0.00000000E+00  0.00000000E+00  0.00000000E+00
  0.00000000E+00  0.00000000E+00
Coordinates of each shell                  R   N=          27
  0.00000000E+00  0.00000000E+00  0.00000000E+00  0.00000000E+00  0.00000000E+00
  0.00000000E+00  0.00000000E+00  0.00000000E+00  0.00000000E+00  1.88972612E+00
  0.00000000E+00  0.00000000E+00  1.88972612E+00  0.00000000E+00  0.00000000E+00
  0.00000000E+00  3.77945225E+00  0.00000000E+00  0.00000000E+00  3.77945225E+00
  0.00000000E+00  0.00000000E+00  0.00000000E+00  2.83458919E+00  0.00000000E+00
  0.00000000E+00  2.83458919E+00
Num ILSW                                   I              100
ILSW                                       I   N=         100
           0           1           0           0           2           0
           0           0           0           0         419          -1
       99590           0           0           0           2           0
           0           0           0           0           1           0
           1           1           0           0           0           0
           0           0      100000           0          -1           0
           0           0           0           0           0           0
           0           0           0           1           1           0
           0 -2000000000           1           0           0           0
           0           0           4          52           0           0
           0           0          47           0           0           0
           0           0           0           4           4           1
           0           0           0           0           0           0
           0           0           0           0           0           0
           0           0           0           0           0           0
           0           0           0           0           0           0
           0           0           0           0
Num RLSW                                   I               52
RLSW                                       R   N=          52
  4.70000000E-01  4.70000000E-01  7.30000000E-01  7.30000000E-01  5.30000000E-01
  0.00000000E+00  0.00000000E+00  1.00000000E+00  0.00000000E+00  0.00000000E+00
  0.00000000E+00  0.00000000E+00  1.00000000E+00  0.00000000E+00  0.00000000E+00
  0.00000000E+00  0.00000000E+00  1.00000000E+00  0.00000000E+00  0.00000000E+00
  0.00000000E+00  0.00000000E+00  1.00000000E+00  0.00000000E+00  0.00000000E+00
  0.00000000E+00  0.00000000E+00  1.00000000E+00  0.00000000E+00  0.00000000E+00
  0.00000000E+00  0.00000000E+00  1.00000000E+00  0.00000000E+00  0.00000000E+00
  0.00000000E+00  0.00000000E+00  0.00000000E+00  2.70000000E-01  2.70000000E-01
  0.00000000E+00  1.00000000E+00  0.00000000E+00  0.00000000E+00  0.00000000E+00
  0.00000000E+00  0.00000000E+00  0.00000000E+00  0.00000000E+00  0.00000000E+00
  0.00000000E+00  0.00000000E+00
MxBond                                     I                1
NBond                                      I   N=           4
           1           1           0           0
IBond                                      I   N=           4
           2           1           0           0
RBond                                      R   N=           4
  1.00000000E+00  1.00000000E+00  0.00000000E+00  0.00000000E+00
Virial Ratio                               R      2.013410093965633E+00
SCF Energy                                 R     -5.615959138859785E+01
MP2 Energy                                 R     -5.622714662197354E+01
Total Energy                               R     -5.622714662197354E+01
Post-SCF wavefunction norm                 R      1.574614627707356E+00
RMS Force                                  R      4.741733011511029E-02
RMS Density                                R      7.977704364277093E-10
NImag                                      I                2
Job Status                                 I                1
Nuclear derivative order                   I                2
External E-field                           R   N=          35
  0.00000000E+00  0.00000000E+00  0.00000000E+00  0.00000000E+00  0.00000000E+00
  0.00000000E+00  0.00000000E+00  0.00000000E+00  0.00000000E+00  0.00000000E+00
  0.00000000E+00  0.00000000E+00  0.00000000E+00  0.00000000E+00  0.00000000E+00
  0.00000000E+00  0.00000000E+00  0.00000000E+00  0.00000000E+00  0.00000000E+00
  0.00000000E+00  0.00000000E+00  0.00000000E+00  0.00000000E+00  0.00000000E+00
  0.00000000E+00  0.00000000E+00  0.00000000E+00  0.00000000E+00  0.00000000E+00
  0.00000000E+00  0.00000000E+00  0.00000000E+00  0.00000000E+00  0.00000000E+00
IOpCl                                      I                0
IROHF                                      I                0
Alpha Orbital Energies                     R   N=          15
 -1.49485832E+01 -9.38975027E-01 -4.70221066E-01 -3.88726481E-01 -3.36612767E-01
 -6.32937132E-02  2.64072248E-02  1.77795145E-01  7.56840695E-01  8.23544724E-01
  8.43704629E-01  8.85224792E-01  9.11136648E-01  1.02055014E+00  1.23351057E+00
Alpha MO coefficients                      R   N=         225
  9.95748042E-01  2.54461000E-02  2.10902096E-03  7.03830391E-04  1.23075669E-03
 -1.14850830E-02 -2.88409141E-03 -5.90766889E-04 -1.31067513E-03 -2.74749689E-04
  4.24380899E-03  5.58475052E-05  7.77605654E-04  5.27647851E-04  1.19508264E-03
 -2.00921241E-01  4.42500418E-01  1.55689611E-01  5.08104620E-03  3.26050065E-02
  4.54639076E-01  6.65867409E-02  8.21237541E-03  3.15208260E-02  2.09227014E-01
  1.67546347E-02  2.02977755E-02  1.29561325E-02  5.83407025E-02  1.88842008E-02
  6.47770939E-02 -1.24239397E-01  4.66400397E-01 -1.09815196E-02 -1.55740649E-01
 -3.09732403E-01  2.20974855E-01 -7.51870717E-03 -9.74958439E-02  2.76490211E-01
  2.19862213E-01 -3.32120054E-02 -5.79443328E-02 -1.40948808E-01 -1.76408616E-01
  6.73566960E-02 -1.60437460E-01  1.92755993E-01 -3.89472405E-02  4.21500486E-01
 -2.73080863E-01  1.27514864E-01 -2.74755153E-02  3.03471561E-01  6.43879056E-02
  6.21083128E-02 -4.32254447E-02 -8.58686439E-02  2.26501330E-01  3.03662969E-01
  3.47212961E-02 -9.13028660E-02  5.88299224E-02  4.08561720E-01  3.72581871E-02
 -1.34825251E-01  4.11361956E-02  3.35498057E-01  2.90948044E-02  5.59055880E-03
  3.45339895E-02  2.41361406E-01  4.29993449E-01  1.15342234E-02  2.74959036E-02
  3.40364774E-02 -7.24302644E-02  1.30213127E-02 -4.60036401E-01 -3.27864525E-02
 -2.20144221E-01 -1.61434781E-02 -4.58887891E-01 -4.71062564E-02 -2.39773859E-03
  1.15070897E-01  2.56680334E-01  6.39515849E-01  7.48311119E-03  8.11982266E-02
  5.05630765E-02 -8.88126923E-02 -9.89694133E-03  5.27270712E-02 -4.41790828E-01
 -4.78599144E-01 -6.16939787E-02  4.59421390E-02 -5.59942140E-01 -3.04656282E-03
  2.29795631E-01 -5.46850999E-02 -1.00688553E-01  2.32537161E-01  9.21458361E-01
  5.65706802E-02 -7.22574691E-02 -3.56354498E-01  3.83026180E-02  1.00493939E-01
 -1.04633763E+00 -8.02108124E-01  2.43252098E-02  1.18686071E-01  9.06429798E-02
  1.85886702E+00 -5.00269656E-02 -9.31228196E-02 -7.74911732E-02 -2.37514421E-01
  2.09554038E-02  4.22181991E-02  4.38338800E-01  2.49814610E-01  4.75809009E-01
 -5.02148880E-01 -6.22186490E-01 -3.21538239E-01 -6.40141827E-01  1.77247616E-01
  5.13847952E-02 -3.77910692E-01  3.95195444E-01 -7.58517609E-01  1.03166456E+00
 -2.88940411E-02  7.79932329E-03 -2.95109209E-01  6.39679237E-01  2.87037197E-01
  3.57921846E-01  9.55353609E-01 -7.50120393E-01 -3.25550871E-01 -7.18785346E-01
 -1.45248613E-01 -1.79322663E-01  3.57400955E-01  1.39623396E-01 -7.88371188E-02
 -3.29225026E-02  3.35299818E-01 -3.76926781E-01 -6.40893232E-01  4.53276223E-01
 -2.43914297E-01  7.35410636E-01  7.44284653E-01 -6.57766878E-01 -2.94130438E-01
 -2.06720022E-01  3.84813505E-02 -2.63518074E-01 -3.88499830E-01  7.59297864E-01
  3.18459516E-02 -6.08998383E-01  3.97532919E-01 -1.93322663E-01  5.71798923E-01
  6.94336618E-01 -3.81823220E-01  2.78288597E-01 -6.29844890E-01 -2.25474728E-01
  2.72866312E-01  2.14028789E-01 -3.58693896E-01  7.06528497E-01 -5.70308836E-01
  1.84871711E-04 -2.73874023E-02 -1.21756357E-01  2.76760320E-01  1.49738719E-01
  4.29147051E-02  3.20110351E-02 -1.39038575E-01 -2.65103073E-01  2.23148960E-01
 -1.73970875E-01  1.18508580E+00 -1.04846139E+00 -3.21086107E-01  5.22091184E-01
 -4.26722335E-02  4.15093235E-01  6.66895191E-01 -1.02313596E-01 -2.97106731E-01
 -6.64960593E-01 -5.45062136E-01  1.89598278E-01  4.35275029E-01 -1.06429162E+00
  1.36324845E+00  2.90182079E-01 -4.05861103E-01 -2.34281042E-01 -8.28374910E-02
  2.99137353E-02 -1.58052324E+00 -1.62021246E-01 -1.18221710E-01 -2.69114382E-01
  2.50250070E+00  8.90214504E-01  2.00490078E-01  4.90911694E-01 -3.53863694E-01
 -1.01022230E+00 -4.43572024E-03 -2.58199066E-01 -5.78886429E-01 -1.56111359E-02
Orthonormal basis                          R   N=         225
  5.37439999E-02  1.90100143E-01  8.10032016E-02  1.01903533E-02  3.40471374E-02
  2.49247336E-01  1.28458192E-01  2.51170309E-02  7.19059329E-02  2.02285617E-01
  2.61884432E-01  5.13452802E-02  1.05720509E-01  1.14460179E-01  1.90005263E-01
 -4.83620478E-03 -1.21650592E-02 -1.96777229E-01  1.68151877E-02  2.08186000E-01
  1.36926281E-02 -2.50093382E-01  2.84612292E-02  3.22842900E-01 -2.08521999E-01
 -1.25633733E-01  3.24087486E-02  4.35850093E-02  2.76106684E-01  2.80226644E-01
  8.50605173E-03  1.85504557E-02 -9.39369907E-02  2.32160802E-01 -9.18989876E-02
  3.81457444E-02 -1.11921428E-01  3.53505789E-01 -1.30591019E-01 -8.02325756E-02
 -2.64662685E-02  3.35973074E-01  3.84588763E-01 -9.57117880E-02 -7.38080113E-02
  1.74591783E-01  3.25553694E-01 -3.07199953E-01 -1.51941754E-01 -2.01443050E-01
  2.85987391E-01 -3.24851421E-01 -1.81175113E-01 -2.33440622E-01 -1.10925436E-01
  1.02244559E-02 -8.43411891E-02 -6.26463630E-02 -8.70568314E-02 -2.90325967E-02
  1.27097622E-01  1.31227537E-01 -3.10008720E-02  5.77336777E-01 -7.79892473E-04
  4.96767462E-02 -2.83642136E-02  3.53031679E-01 -1.53268129E-04  2.61484810E-02
 -1.08516558E-02 -4.55181180E-01 -2.99847440E-01  7.83026131E-03 -5.20682736E-03
  4.82188397E-01  1.80555985E-01  3.16759892E-02 -5.47904700E-02  6.13094632E-01
  2.11356153E-03  7.42219942E-03 -1.27942107E-02  2.15861585E-01  2.76475687E-02
 -5.87508288E-02  8.31209139E-02  2.92846515E-02 -4.23425917E-01 -2.57392534E-01
  8.17105098E-01 -1.31998273E-01  2.75729676E-01 -4.32976359E-02 -3.60701970E-01
 -1.57867807E-01  9.95289077E-02  2.11718784E-03 -3.49941053E-02 -1.42869033E-01
 -1.34645397E-01  8.43935664E-02  1.50504205E-02  3.15512120E-01  1.19551370E-01
 -2.83842287E-01  5.02358953E-01  9.24512924E-01 -1.24975483E-02  7.98606079E-03
  1.77601832E-01 -2.65691044E-01  7.84553975E-03 -3.53329877E-03 -3.47078422E-01
 -3.62770543E-01  1.68367235E-02  1.20428078E-03  3.48142457E-03 -8.07180458E-03
 -9.16447444E-03  2.81891774E-02 -1.01412963E-02  9.14457158E-01 -1.37566384E-02
  1.80899665E-02  1.31660776E-02 -9.11211914E-01  1.54933673E-02 -5.60180243E-03
  2.46616577E-03  6.41509499E-01 -2.74780527E-01  1.08314267E-02 -1.03329555E-02
 -4.08147138E-02  2.66206023E-01 -8.36024756E-02 -7.18456255E-02 -8.02226417E-01
 -1.71550991E-01 -9.94176342E-02  1.01921127E-01  9.77391903E-01  4.79335813E-01
 -3.06368724E-01  1.59385837E-01 -1.34535329E-01 -5.83829483E-01  1.32785688E-01
 -1.20510786E-01  7.61609121E-01 -3.74829080E-01 -2.01863782E-01  6.18552401E-02
 -2.38587781E-01  5.02985997E-01  3.11620745E-01 -2.09239127E-02  1.28772583E-01
 -3.58520935E-01  4.73719852E-01 -4.53163342E-01  7.45022231E-01 -5.96338062E-01
  8.53203447E-02 -3.39601968E-01  2.17565743E-01 -3.58411100E-02  2.12993741E-01
  9.68769588E-02 -8.69346486E-01  6.07611295E-02 -2.76180958E-01  1.15508700E+00
 -3.80750109E-01  1.36777425E-01 -1.15483822E-01  3.64764390E-01 -1.53604953E-01
 -1.32592981E-02  2.96811927E-01 -1.14423781E-01  3.17086950E-01 -1.39039975E-01
 -1.72747009E-01  1.32971752E-01 -6.79285995E-01  3.42382226E-01  2.57138046E-01
 -3.46839430E-01 -8.91780553E-01  1.31926154E+00  4.71085286E-01 -7.12140881E-01
 -1.29255687E-02  6.05011165E-01 -2.84374794E-01  7.08673651E-02  3.43504847E-01
 -6.65225606E-01  5.66894966E-01 -1.69789489E-01 -9.23326698E-01  4.71096260E-01
 -1.10091136E+00 -1.52836895E-01  3.36462523E-01 -4.61601933E-01  1.46347235E+00
 -2.40218210E-02 -1.31801998E+00 -3.23614328E-01 -2.25131131E-02 -7.19792820E-02
  2.93654806E+00  1.46948114E+00  6.18112456E-02  2.19912518E-01 -1.07997304E-01
 -2.16498438E+00  7.83594753E-03 -1.20018131E-01 -1.54346675E-01 -2.02856957E-01
Total SCF Density                          R   N=         120
  2.08364415E+00 -1.71188774E-01  4.91931888E-01  3.21136481E-02 -5.05910847E-02
  5.64777732E-01  2.10620634E-02 -5.48472949E-02  2.43982113E-02  3.37172945E-01
  2.85411824E-02 -7.44361511E-02  3.17599939E-02  1.36558197E-03  4.08741166E-01
 -2.91843187E-01  5.90978059E-01 -2.68541379E-01 -7.74907987E-02 -1.14159521E-01
  7.91027529E-01  1.61617438E-02 -4.45530487E-02  2.80845670E-01  1.94999669E-02
  4.60659627E-02 -1.57010163E-01  1.42448452E-01  1.41458636E-02 -4.33415314E-02
  2.44237239E-02  2.76531274E-01  4.71422420E-03 -6.33226665E-02  1.83693420E-02
  2.26876346E-01  1.49944958E-02 -5.06343873E-02  3.92804157E-02  2.59506451E-03
  2.90415240E-01 -8.45034311E-02  4.09050072E-02  4.83178133E-03  2.06884432E-01
 -3.97408650E-02  9.47688142E-02  3.48538168E-01 -4.39405369E-03 -1.77828546E-02
 -1.76977972E-02  1.66940622E-01 -5.07810210E-04 -1.31744711E-03  2.48799825E-01
  4.09678266E-02 -6.58223591E-02  2.38329355E-01  1.87280311E-02 -1.24492356E-02
 -1.64293051E-01  1.18055495E-01  1.67232742E-02 -2.12045596E-03  1.36972388E-01
  1.07376318E-01 -1.41032734E-03 -3.98514565E-03 -1.29250254E-02  2.01524869E-01
 -6.78504073E-03 -2.44643151E-03 -3.14162624E-03  1.65160591E-01 -4.43513662E-03
 -1.27396349E-02 -2.62246668E-03  1.23277615E-01  7.12754666E-03 -2.50624743E-02
 -3.25233983E-02  3.59451809E-01 -2.14504378E-02 -2.13924414E-02 -1.04100209E-02
  2.94325719E-01 -1.49828313E-02 -3.28709600E-02 -6.00632255E-03  2.19366011E-01
  3.91587604E-01 -9.33974355E-03  1.18964017E-02 -2.46327593E-02 -4.52904871E-03
  2.39508944E-01  1.35320657E-02  4.18762676E-03 -1.62994878E-03  1.69304953E-01
 -2.42324612E-02 -3.10873244E-02 -2.28259161E-03 -1.11325135E-02  1.49412746E-01
  1.47539087E-02 -4.18515869E-02 -3.83680305E-02  2.88193254E-03  3.14219439E-01
 -4.68409061E-02  4.24948259E-03  4.72453701E-03  2.21491699E-01 -5.02371177E-02
 -3.73091624E-02 -4.94517966E-04 -7.56918772E-03  1.90128285E-01  2.48890530E-01
Total MP2 Density                          R   N=         120
  2.08356698E+00 -1.68714080E-01  4.90504191E-01  3.14422978E-02 -4.64714403E-02
  5.59679471E-01  1.76413226E-02 -4.38783938E-02  1.65766073E-02  3.83518248E-01
  2.65160438E-02 -6.58824626E-02  2.56640827E-02 -3.82738494E-04  4.25743043E-01
 -2.97129932E-01  5.83557414E-01 -2.74399272E-01 -7.13037611E-02 -1.15160415E-01
  8.46964038E-01  1.68991844E-02 -4.25769575E-02  2.66792767E-01  1.50068283E-02
  4.13623903E-02 -1.67543377E-01  1.37675475E-01  1.18361652E-02 -3.27145520E-02
  1.98149999E-02  2.77165505E-01  3.94815021E-03 -6.17902476E-02  1.61173901E-02
  2.07578984E-01  1.44233324E-02 -4.37344520E-02  3.60404709E-02  1.72941315E-03
  2.78184586E-01 -9.14061505E-02  3.85599678E-02  4.85250874E-03  1.89645598E-01
 -3.88256244E-02  9.27243953E-02  3.39201415E-01 -4.30728933E-03 -1.69352624E-02
 -2.83809674E-02  1.61071912E-01  1.77355326E-03  1.45240378E-03  2.50635363E-01
  4.35671034E-02 -6.74043940E-02  2.49662540E-01  1.80381921E-02 -8.41470096E-03
 -1.91504565E-01  1.27605833E-01  1.80020546E-02  4.52484695E-03  1.51589824E-01
  1.33229951E-01 -1.22381032E-05 -4.15954400E-03 -1.09149219E-02  1.93360295E-01
 -5.63530623E-03 -1.08184332E-02 -1.42515486E-03  1.50054831E-01 -3.16808450E-03
 -1.12007851E-02 -1.88913219E-03  1.36957996E-01  8.85386887E-03 -2.25954076E-02
 -2.81900174E-02  3.34054725E-01 -1.77682436E-02 -3.38733196E-02 -7.46168994E-03
  2.57896345E-01 -1.13148350E-02 -2.90433435E-02 -5.31567329E-03  2.26699696E-01
  3.82396833E-01 -8.24485381E-03  1.21696907E-02 -2.34050140E-02 -3.80455945E-03
  2.32862707E-01  3.83159388E-03  4.93118365E-03 -7.33917791E-04  1.59175867E-01
 -2.30765319E-02 -2.99146599E-02 -2.93593968E-03 -1.12985535E-02  1.56946327E-01
  1.73883944E-02 -4.18552458E-02 -3.52269149E-02  2.78033018E-03  3.06778495E-01
 -6.72503860E-02  6.69923072E-03  5.19319661E-03  2.11836036E-01 -4.86301039E-02
 -3.56497618E-02 -1.61811448E-03 -8.34879670E-03  2.00764875E-01  2.70825731E-01
Grdnt Energy                               R     -5.622714662197354E+01
Grdnt NVar                                 I                0
Grdnt IGetFC                               I                4
Mulliken Charges                           R   N=           4
 -4.74790123E-01  2.99615380E-01  2.49161664E-02  1.50258577E-01
ONIOM Charges                              I   N=          16
           0           0           0           0           0           0
           0           0           0           0           0           0
           0           0           0           0
ONIOM Multiplicities                       I   N=          16
           1           0           0           0           0           0
           0           0           0           0           0           0
           0           0           0           0
Atom Layers                                I   N=           4
           1           1           1           1
Atom Modifiers                             I   N=           4
           0           0           0           0
Force Field                                I                0
Atom Modified Types                        C   N=           4
                                                
Int Atom Modified Types                    I   N=           4
           0           0           0           0
Link Atoms                                 I   N=           4
           0           0           0           0
Atom Modified MM Charges                   R   N=           4
  0.00000000E+00  0.00000000E+00  0.00000000E+00  0.00000000E+00
Link Distances                             R   N=          16
  0.00000000E+00  0.00000000E+00  0.00000000E+00  0.00000000E+00  0.00000000E+00
  0.00000000E+00  0.00000000E+00  0.00000000E+00  0.00000000E+00  0.00000000E+00
  0.00000000E+00  0.00000000E+00  0.00000000E+00  0.00000000E+00  0.00000000E+00
  0.00000000E+00
Cartesian Gradient                         R   N=          12
  3.98568448E-02 -5.98501102E-02 -9.22697647E-02 -4.49892537E-02 -1.57948343E-03
  8.88323977E-03 -7.89758443E-04  6.31217002E-02 -1.26905304E-03  5.92216741E-03
 -1.69210657E-03  8.46555780E-02
Cartesian Force Constants                  R   N=          78
  5.69447285E-01  5.09788861E-03  5.90084328E-05 -2.77134956E-03  1.74618118E-03
 -4.46478446E-03 -5.05245086E-01  3.97315319E-03  1.69297101E-02  5.12450818E-01
 -1.10866280E-02  1.09181878E-03  1.63965207E-03 -1.24633270E-03  1.78930754E-03
 -1.54080319E-02  1.39487585E-03 -1.37366969E-03 -1.39477194E-02 -6.99728994E-04
  2.07488878E-02 -2.13789617E-02 -1.00009770E-02  8.19862179E-04 -1.04111637E-03
  1.27995045E-02 -3.49841949E-04  2.31009771E-02  4.18463888E-03  3.91444567E-02
  2.97987096E-03 -1.96679581E-03 -4.95947360E-03  7.94066621E-05 -2.27074209E-03
 -3.28921742E-02  1.35311002E-03 -5.80782876E-03 -2.06101224E-02 -5.70013162E-04
 -7.91529211E-04 -9.98883839E-04 -3.95785812E-04 -6.33971593E-04  2.21263682E-02
 -4.28232372E-02  9.29935235E-04 -1.49782227E-02 -6.16461537E-03 -4.66543862E-04
  2.97055932E-02 -6.80899071E-04  5.28990188E-05 -3.87311048E-04  4.96687516E-02
  1.80410049E-03 -4.02952839E-02 -6.36570422E-03 -7.60024688E-04  2.07834728E-03
 -7.74553522E-04 -5.27785413E-04 -1.29280883E-03  7.23332956E-03 -5.16290392E-04
  3.95097454E-02  1.68262714E-02  2.66677172E-03  2.64485766E-02 -2.41197758E-03
 -1.48393865E-04 -1.83763343E-02 -7.42344176E-05 -2.42530603E-03 -5.17361914E-04
 -1.43400594E-02 -9.30718243E-05 -7.55488037E-03
Nonadiabatic coupling                      R   N=          12
  0.00000000E+00  0.00000000E+00  0.00000000E+00  0.00000000E+00  0.00000000E+00
  0.00000000E+00  0.00000000E+00  0.00000000E+00  0.00000000E+00  0.00000000E+00
  0.00000000E+00  0.00000000E+00
Dipole Moment                              R   N=           3
  7.06545287E-01  1.95260920E-01  4.22964962E-01
Dipole Derivatives                         R   N=          36
  3.17923280E-02  7.68870633E-02  1.56733311E-01 -8.32140468E-03 -1.15879410E-01
 -2.04238610E-02  1.95099776E-02 -4.49453541E-02  9.62251715E-02 -2.07276094E-01
 -9.03204644E-03 -1.04048097E-02  1.94488375E-03  1.74954329E-01  2.04591645E-02
 -3.95519327E-02  4.74174939E-02  1.39050569E-01  5.26361860E-02 -9.94666095E-02
  1.02295754E-02  4.09710315E-03 -1.58995522E-01 -4.87230381E-04  1.70956424E-03
 -3.69713261E-02  5.20027830E-02  1.22847580E-01  3.16115926E-02 -1.56558077E-01
  2.27941777E-03  9.99206031E-02  4.51926866E-04  1.83323909E-02  3.44991863E-02
 -2.87278523E-01
Polarizability                             R   N=           6
  8.59653484E+00 -1.18973468E+00  2.88977684E+01 -6.31972395E-01 -4.09695146E+00
  1.89499075E+01
QEq coupling tensors                       R   N=          24
  7.28797969E-01  1.34783428E-01 -5.24491696E-01  2.10559832E-01  1.62888247E-03
 -2.04306273E-01 -4.73702499E-01  1.00361342E-02  2.37532898E-01  2.33019536E-02
  4.54300253E-04  2.36169600E-01 -9.86975452E-03  7.84339703E-03  1.90318444E-02
  4.15662224E-04  3.33604409E-03 -9.16208985E-03  9.31957953E-03  1.04051215E-03
  1.44417795E-02  1.93613651E-02  2.54414916E-03 -2.37613590E-02
Number of Normal Modes                     I                6
Vib-LE2Fix                                 I               14
Vib-NDFDPol                                I                0
Vib-NumROA                                 I                0
Vib-NDim                                   I                4
Vib-NDim0                                  I                4
Vib-LFlags                                 I                8
Vib-IFlags                                 I   N=          48
           0           0           1           0           0           0
           0           0           0           0           2           0
           0           0           0           0           0           0
           3           0           0           0           0           0
           0           0           4           0           0           0
           0           0           0           0           5           0
           0           0           0           0           0           0
           6           0           0           0           0           0
Vib-AtMass                                 R   N=           4
  1.40030740E+01  1.00782504E+00  1.00782504E+00  1.00782504E+00
Vib-E2                                     R   N=          84
 -9.82321682E+02 -6.64952234E+02  6.85694846E+02  1.06214812E+03  1.32675251E+03
  3.79398750E+03  1.08421926E+00  1.10409563E+00  1.04756604E+00  1.07189060E+00
  1.03799239E+00  1.07296214E+00  6.16417245E-01  2.87632392E-01  2.90197311E-01
  7.12476976E-01  1.07652521E+00  9.09968567E+00  1.67944816E+01  7.12337112E+01
  1.67917808E+01  7.39440285E+00  1.34928450E+01  4.06388125E+01  0.00000000E+00
  0.00000000E+00  0.00000000E+00  0.00000000E+00  0.00000000E+00  0.00000000E+00
  0.00000000E+00  0.00000000E+00  0.00000000E+00  0.00000000E+00  0.00000000E+00
  0.00000000E+00  0.00000000E+00  0.00000000E+00  0.00000000E+00  0.00000000E+00
  0.00000000E+00  0.00000000E+00  0.00000000E+00  0.00000000E+00  0.00000000E+00
  0.00000000E+00  0.00000000E+00  0.00000000E+00  0.00000000E+00  0.00000000E+00
  0.00000000E+00  0.00000000E+00  0.00000000E+00  0.00000000E+00  1.00000000E+02
  1.00000000E+02  1.00000000E+02  1.00000000E+02  1.00000000E+02  1.00000000E+02
  0.00000000E+00  0.00000000E+00  0.00000000E+00  0.00000000E+00  0.00000000E+00
  0.00000000E+00  0.00000000E+00  0.00000000E+00  0.00000000E+00  0.00000000E+00
  0.00000000E+00  0.00000000E+00  0.00000000E+00  0.00000000E+00  0.00000000E+00
  0.00000000E+00  0.00000000E+00  0.00000000E+00  0.00000000E+00  0.00000000E+00
  0.00000000E+00  0.00000000E+00  0.00000000E+00  0.00000000E+00
Vib-Modes                                  R   N=          72
 -4.36879724E-03 -7.58661578E-02 -1.01915114E-02  1.64267174E-03  8.48942339E-02
  2.49177152E-02  4.24471170E-02  9.83677678E-01 -1.08457097E-02  1.66118101E-02