NH3 XYG3 Freq                                                           
Freq      RXYG3-Full                                                  6-31G               
Number of atoms                            I                4
Info1-9                                    I   N=           9
          14          12           0           0           0         100
           6           2        -902
Full Title                                 C   N=           2
NH3 XYG3 Freq           
Route                                      C   N=           4
#p RXYG3(Full)/6-31G nosymm SCF(VeryTight) Freq 
Charge                                     I                0
Multiplicity                               I                1
Number of electrons                        I               10
Number of alpha electrons                  I                5
Number of beta electrons                   I                5
Number of basis functions                  I               15
Number of independent functions            I               15
Number of point charges in /Mol/           I                0
Number of translation vectors              I                0
Atomic numbers                             I   N=           4
           7           1           1           1
Nuclear charges                            R   N=           4
  7.00000000E+00  1.00000000E+00  1.00000000E+00  1.00000000E+00
Current cartesian coordinates              R   N=          12
  0.00000000E+00  0.00000000E+00  0.00000000E+00  1.70075352E+00  0.00000000E+00
  0.00000000E+00  0.00000000E+00  1.88972613E+00  0.00000000E+00  0.00000000E+00
  0.00000000E+00  2.07869875E+00
Number of symbols in /Mol/                 I                0
Force Field                                I                0
Atom Types                                 C   N=           4
                                                
Int Atom Types                             I   N=           4
           0           0           0           0
MM charges                                 R   N=           4
  0.00000000E+00  0.00000000E+00  0.00000000E+00  0.00000000E+00
Integer atomic weights                     I   N=           4
          14           1           1           1
Real atomic weights                        R   N=           4
  1.40030740E+01  1.00782504E+00  1.00782504E+00  1.00782504E+00
Atom fragment info                         I   N=           4
           0           0           0           0
Atom residue num                           I   N=           4
           0           0           0           0
Nuclear spins                              I   N=           4
           2           1           1           1
Nuclear ZEff                               R   N=           4
 -4.55000000E+00 -1.00000000E+00 -1.00000000E+00 -1.00000000E+00
Nuclear ZNuc                               R   N=           4
  7.00000000E+00  1.00000000E+00  1.00000000E+00  1.00000000E+00
Nuclear QMom                               R   N=           4
  2.04400000E+00  0.00000000E+00  0.00000000E+00  0.00000000E+00
Nuclear GFac                               R   N=           4
  4.03761000E-01  2.79284600E+00  2.79284600E+00  2.79284600E+00
MicOpt                                     I   N=           4
          -1          -1          -1          -1
Number of residues                         I                0
Number of secondary structures             I                0
Number of contracted shells                I                9
Number of primitive shells                 I               22
Pure/Cartesian d shells                    I                1
Pure/Cartesian f shells                    I                0
Highest angular momentum                   I                1
Largest degree of contraction              I                6
Shell types                                I   N=           9
           0          -1          -1           0           0           0
           0           0           0
Number of primitives per shell             I   N=           9
           6           3           1           3           1           3
           1           3           1
Shell to atom map                          I   N=           9
           1           1           1           2           2           3
           3           4           4
Primitive exponents                        R   N=          22
  4.17351146E+03  6.27457911E+02  1.42902093E+02  4.02343293E+01  1.28202129E+01
  4.39043701E+00  1.16263619E+01  2.71627981E+00  7.72218397E-01  2.12031498E-01
  1.87311370E+01  2.82539436E+00  6.40121692E-01  1.61277759E-01  1.87311370E+01
  2.82539436E+00  6.40121692E-01  1.61277759E-01  1.87311370E+01  2.82539436E+00
  6.40121692E-01  1.61277759E-01
Contraction coefficients                   R   N=          22
  1.83477216E-03  1.39946270E-02  6.85865518E-02  2.32240873E-01  4.69069948E-01
  3.60455199E-01 -1.14961182E-01 -1.69117479E-01  1.14585195E+00  1.00000000E+00
  3.34946043E-02  2.34726953E-01  8.13757326E-01  1.00000000E+00  3.34946043E-02
  2.34726953E-01  8.13757326E-01  1.00000000E+00  3.34946043E-02  2.34726953E-01
  8.13757326E-01  1.00000000E+00
P(S=P) Contraction coefficients            R   N=          22
  0.00000000E+00  0.00000000E+00  0.00000000E+00  0.00000000E+00  0.00000000E+00
  0.00000000E+00  6.75797439E-02  3.23907296E-01  7.40895140E-01  1.00000000E+00
  0.00000000E+00  0.00000000E+00  0.00000000E+00  0.00000000E+00  0.00000000E+00
  0.00000000E+00  0.00000000E+00  0.00000000E+00  0.00000000E+00  0.00000000E+00
  0.00000000E+00  0.00000000E+00
Coordinates of each shell                  R   N=          27
  0.00000000E+00  0.00000000E+00  0.00000000E+00  0.00000000E+00  0.00000000E+00
  0.00000000E+00  0.00000000E+00  0.00000000E+00  0.00000000E+00  1.70075352E+00
  0.00000000E+00  0.00000000E+00  1.70075352E+00  0.00000000E+00  0.00000000E+00
  0.00000000E+00  1.88972613E+00  0.00000000E+00  0.00000000E+00  1.88972613E+00
  0.00000000E+00  0.00000000E+00  0.00000000E+00  2.07869875E+00  0.00000000E+00
  0.00000000E+00  2.07869875E+00
Num ILSW                                   I              100
ILSW                                       I   N=         100
           0           1           0           0           2           0
           0           0           0           0         402 67108864000
           0           0           0           0           2           0
           0           0           0           0           1           0
           1           1           0           0           0           0
           0           0      100000           0          -1           0
           0           0           0           0           0           0
           0           0           0           1           1           0
           0           0           1           0           0           0
           0           0           4          52           0           0
           0           0          59           0           0           0
           1         402          -5           0           0           0
           0           0           0           0           0           0
           0           0           0           0           0           0
           0           0           0           0           0           0
           0           0           0           0           0           0
           0           0           0           0
Num RLSW                                   I               52
RLSW                                       R   N=          52
  8.00000000E-01  7.20000000E-01  1.00000000E+00  8.10000000E-01  2.00000000E-01
  0.00000000E+00  0.00000000E+00  1.00000000E+00  0.00000000E+00  0.00000000E+00
  0.00000000E+00  0.00000000E+00  1.00000000E+00  0.00000000E+00  0.00000000E+00
  0.00000000E+00  0.00000000E+00  1.00000000E+00  0.00000000E+00  0.00000000E+00
  0.00000000E+00  0.00000000E+00  1.00000000E+00  0.00000000E+00  0.00000000E+00
  0.00000000E+00  0.00000000E+00  1.00000000E+00  0.00000000E+00  0.00000000E+00
  0.00000000E+00  0.00000000E+00  1.00000000E+00  0.00000000E+00  0.00000000E+00
  0.00000000E+00  0.00000000E+00  0.00000000E+00  3.21100000E-01  3.21100000E-01
  8.00000000E-01  7.20000000E-01  1.00000000E+00  8.10000000E-01  1.96700000E-01
  2.10700000E-01  6.78900000E-01  6.78900000E-01  2.00000000E-01  8.03300000E-01
  0.00000000E+00  0.00000000E+00
MxBond                                     I                3
NBond                                      I   N=           4
           3           1           1           1
IBond                                      I   N=          12
           2           3           4           1           0           0
           1           0           0           1           0           0
RBond                                      R   N=          12
  1.00000000E+00  1.00000000E+00  1.00000000E+00  1.00000000E+00  0.00000000E+00
  0.00000000E+00  1.00000000E+00  0.00000000E+00  0.00000000E+00  1.00000000E+00
  0.00000000E+00  0.00000000E+00
Virial Ratio                               R      2.000139398631043E+00
SCF Energy                                 R     -5.633570780091287E+01
MP2 Energy                                 R     -5.639184771527309E+01
Total Energy                               R     -5.639184771527309E+01
Post-SCF wavefunction norm                 R      1.478526900965903E+00
RMS Force                                  R      7.000691479146877E-02
RMS Density                                R      2.050723815475344E-09
NImag                                      I                0
Nuclear derivative order                   I                0
External E-field                           R   N=          35
  0.00000000E+00  0.00000000E+00  0.00000000E+00  0.00000000E+00  0.00000000E+00
  0.00000000E+00  0.00000000E+00  0.00000000E+00  0.00000000E+00  0.00000000E+00
  0.00000000E+00  0.00000000E+00  0.00000000E+00  0.00000000E+00  0.00000000E+00
  0.00000000E+00  0.00000000E+00  0.00000000E+00  0.00000000E+00  0.00000000E+00
  0.00000000E+00  0.00000000E+00  0.00000000E+00  0.00000000E+00  0.00000000E+00
  0.00000000E+00  0.00000000E+00  0.00000000E+00  0.00000000E+00  0.00000000E+00
  0.00000000E+00  0.00000000E+00  0.00000000E+00  0.00000000E+00  0.00000000E+00
IOpCl                                      I                0
IROHF                                      I                0
Alpha Orbital Energies                     R   N=          15
 -1.43177111E+01 -9.23098832E-01 -4.60855660E-01 -4.32632183E-01 -2.81486140E-01
  5.40427126E-02  1.41253294E-01  1.81224728E-01  6.47823020E-01  6.74171769E-01
  7.40077830E-01  8.65764342E-01  9.38455313E-01  1.08244777E+00  1.58434979E+00
Alpha MO coefficients                      R   N=         225
  9.95189142E-01  3.13453069E-02  2.27035905E-03  1.89993469E-03  1.66035602E-03
 -1.98140146E-02 -3.38988269E-03 -2.86838612E-03 -2.46073239E-03 -4.62225753E-04
  5.45464193E-03 -1.40206823E-05  4.04294334E-03  3.71323139E-04  2.97150471E-03
 -1.90743467E-01  3.99957405E-01  1.39810430E-01  1.06950934E-01  8.16269395E-02
  3.86086328E-01  5.08054302E-02  4.97487324E-02  4.59274967E-02  1.90125576E-01
  6.19785835E-03  1.50185504E-01  4.25206596E-03  1.17714621E-01  5.11802893E-03
  7.02232588E-03 -8.96184964E-03  3.90997182E-01 -2.96624253E-01 -9.14542165E-02
 -6.91000880E-02  1.46157671E-01 -1.32541121E-01 -4.73199846E-02  2.96460571E-01
  2.25856460E-01 -2.32130017E-01 -1.80626462E-01 -7.45423432E-02 -6.16260642E-02
 -7.23275718E-03  7.97050012E-03 -1.14909265E-01 -2.71609498E-01  3.81064864E-01
  6.39142154E-02 -4.35975496E-02 -1.21238325E-01  1.94761144E-01 -8.18436700E-02
 -6.56252962E-02 -1.98994463E-01 -1.62827484E-01  2.89680021E-01  2.51372850E-01
 -1.07943800E-01  2.33947377E-01 -2.96474174E-01 -2.88983937E-01 -2.82773910E-01
  4.56436785E-01 -2.24070499E-01 -2.23884073E-01 -2.24395749E-01 -8.26716714E-02
 -7.26064660E-02 -8.35743883E-02 -8.12257337E-02 -8.54279037E-02 -8.94436443E-02
 -9.83704393E-02  1.33574065E-01  8.23375076E-02  1.41125409E-01  2.52829573E-01
  1.56130277E+00  2.42877737E-01  3.18618806E-01  4.74930176E-01 -5.40435175E-03
 -7.39263389E-01 -3.44847140E-02 -7.90437337E-01 -9.28473358E-02 -9.99284575E-01
  1.88680801E-02 -1.65959795E-02 -9.10688635E-02 -2.81391267E-01  3.19986032E-01
 -4.93212625E-01 -2.26325995E-01 -6.01997855E-01  5.98731068E-01  2.05338543E-02
  5.57841652E-01  9.64531366E-02  1.32189185E+00 -1.41105507E-01 -1.21970078E+00
  1.26351412E-02 -6.65667125E-03 -3.32163892E-01  2.27656540E-01  8.70919105E-02
 -4.45678614E-01 -8.28597557E-01  4.96491768E-01  1.67195697E-01  7.38517682E-02
  2.02168884E+00 -7.39354963E-02 -1.11649454E+00 -3.59614773E-02 -3.60130011E-01
 -1.03891305E-02 -6.59991830E-02 -4.02089607E-01  4.88751613E-02 -2.34273396E-02
  5.61372817E-01  1.20230093E+00 -3.69484276E-01 -1.04648330E-01 -7.62937839E-01
 -2.04038893E-01  4.78555683E-01 -1.93532953E-01  3.52902566E-01 -2.95862820E-01
 -1.00895169E-02 -4.88858045E-02 -1.21521477E-01 -3.72878357E-01  1.19441538E-01
  3.92133014E-01  1.84292992E-01  8.93767673E-01 -4.33830579E-01 -4.55079645E-02
 -5.64727272E-02 -6.84488247E-01  1.03057054E-01  7.82945153E-01 -5.63221571E-01
 -3.63679725E-02  1.67219076E-01 -3.99468849E-01 -5.21808696E-01 -7.10590373E-01
  2.96989190E-01  3.37090761E-01  6.49735081E-01  1.02663859E+00  1.55427521E-01
 -1.47599759E-01  4.15484359E-02 -3.14786186E-01 -2.37550838E-01 -2.63161681E-01
 -3.45644464E-02  3.78084697E-01 -3.19358686E-01 -4.30463405E-01  7.12151031E-01
 -3.53278778E-01  5.17036900E-01  6.54881004E-01 -9.89718362E-01  3.27137310E-02
 -4.62183361E-01  1.15772446E-01 -6.22496971E-01 -7.22038423E-01  1.54215365E+00
 -4.02984556E-02  5.18844892E-01 -5.61543799E-01  6.88659207E-01 -1.84824097E-02
 -6.39425862E-01  8.11041437E-01 -8.60827421E-01  5.45342724E-02  2.80312780E-01
 -9.92282702E-01 -8.01636094E-01  1.56874847E+00 -1.58280403E-01  1.48598078E-01
  7.09360964E-02 -1.27741758E+00 -6.05460016E-01 -1.58774822E-02  8.76317580E-02
  1.88051814E+00  6.19181374E-01 -3.03351114E-02 -1.31512345E-01  8.94842608E-01
 -1.51016845E+00  2.46819407E-01 -2.80065664E-01  7.99910160E-02 -2.83490031E-02
 -7.01447424E-02 -1.40536841E+00  1.25637693E-01  4.55384195E-05 -9.13781410E-02
  3.78084512E+00  9.54152741E-01  8.82479928E-01  8.04585420E-01 -9.94948468E-01
 -8.34241237E-01 -9.20593669E-01 -6.08214013E-01 -8.78138021E-01 -4.14938981E-01
Total SCF Density                          R   N=         120
  2.07707598E+00 -1.40937007E-01  4.31647346E-01  2.23417598E-02 -3.55798319E-02
  5.47063965E-01  2.51322398E-02 -4.85564467E-02  3.17292885E-02  5.13422990E-01
  2.64157642E-02 -5.91959892E-02  3.14100082E-02  2.81541039E-02  4.80402205E-01
 -2.87158354E-01  5.23415782E-01 -2.31500168E-01 -1.75022394E-01 -1.33822622E-01
  7.33299271E-01  2.49286800E-02 -6.77285835E-02  2.71367097E-01  7.73352426E-02
  7.50450497E-02 -1.90955160E-01  1.52126165E-01  2.35384111E-02 -6.46962894E-02
  7.08658542E-02  2.84517033E-01  6.65728547E-02 -1.63030073E-01  7.72336753E-02
  1.69746245E-01  2.25438184E-02 -6.44569369E-02  6.41225203E-02  6.17827181E-02
  2.91484679E-01 -1.37847835E-01  7.44297757E-02  7.03797125E-02  1.85279852E-01
 -5.02550422E-02  1.06755305E-01  3.52820696E-01 -4.29677251E-02 -3.88086462E-02
  1.99264530E-02  1.50166862E-01 -2.80384846E-03 -5.36835131E-03  2.75139619E-01
  2.82886135E-02 -3.37667871E-02  2.36510090E-01 -5.50294348E-02 -4.92336741E-02
 -1.01313045E-01  1.04874235E-01 -1.08616930E-02 -1.38099399E-02  1.59013796E-01
  1.21315371E-01 -3.96606678E-02  8.20191696E-02 -4.42415188E-02  3.26236577E-01
 -3.74174260E-02  4.63201038E-02  2.20985990E-03  1.62150163E-01 -4.24116845E-03
 -3.41352280E-02 -6.47404006E-02  2.46047011E-01  2.37790552E-02 -3.37084881E-02
 -5.44581132E-02  2.43478113E-01 -4.44129352E-02 -6.68770833E-02 -1.79689990E-03
  1.24132903E-01 -9.50635645E-03 -6.54012003E-02 -4.83282627E-02  1.63515049E-01
  1.31541507E-01 -3.09619831E-02  6.01675431E-02 -4.12940448E-02 -3.85821840E-02
  3.01940345E-01  6.02275288E-02  3.19376379E-03 -5.18719537E-04  1.69041675E-01
 -3.27289713E-02 -5.78239696E-02 -3.10451913E-02 -5.25251474E-02  2.21251744E-01
  1.87699767E-02 -3.24582376E-02 -5.14813121E-02 -4.71893363E-02  2.54280713E-01
 -3.71671619E-02  6.50540689E-04 -4.07387253E-03  1.44344656E-01 -6.09536490E-02
 -4.77458924E-02 -5.49454721E-02 -4.50004189E-02  1.71311994E-01  1.50042542E-01
Total MP2 Density                          R   N=         120
  2.07685418E+00 -1.49042988E-01  4.35982546E-01  2.16554332E-02 -3.87459533E-02
  5.47355899E-01  2.47406589E-02 -5.34744592E-02  3.38400343E-02  5.14863712E-01
  2.62527444E-02 -6.58122450E-02  3.36281024E-02  3.03083938E-02  4.82179657E-01
 -2.64239793E-01  4.97016635E-01 -2.06840341E-01 -1.50445482E-01 -1.09152449E-01
  6.89451605E-01  2.60135942E-02 -6.75345300E-02  2.79552381E-01  7.81492787E-02
  7.67518800E-02 -1.85416407E-01  1.72927592E-01  2.41332857E-02 -6.47805074E-02
  7.04468561E-02  2.93326677E-01  6.78358388E-02 -1.54353824E-01  8.43697836E-02
  1.90893661E-01  2.26608508E-02 -6.49961596E-02  6.35776975E-02  6.20004766E-02
  3.00437039E-01 -1.26106934E-01  8.12441992E-02  7.66119459E-02  2.06799644E-01
 -4.98377784E-02  1.05684776E-01  3.39675274E-01 -4.46672662E-02 -4.10554717E-02
  2.88297788E-02  1.54970426E-01 -5.57542601E-03 -8.24562550E-03  2.78368042E-01
  2.10410075E-02 -2.51327148E-02  2.05840979E-01 -5.63906865E-02 -5.16193589E-02
 -8.21512325E-02  9.89656335E-02 -1.64824197E-02 -1.95422496E-02  1.50384934E-01
  1.12656772E-01 -3.96852310E-02  8.00163640E-02 -4.46275008E-02  3.09678831E-01
 -3.91702200E-02  5.68217385E-02  5.06090874E-04  1.65717456E-01 -6.34666812E-03
 -3.58677353E-02 -6.43843601E-02  2.45999602E-01  1.79517365E-02 -2.68889679E-02
 -5.41627080E-02  2.14728257E-01 -4.59857846E-02 -5.10635166E-02 -5.62274920E-03
  1.19980194E-01 -1.35765686E-02 -6.50190316E-02 -5.00111461E-02  1.55851723E-01
  1.25675323E-01 -3.13437824E-02  5.73277611E-02 -4.11964215E-02 -3.92599964E-02
  2.81699761E-01  7.19008107E-02  2.30771233E-03 -1.67340632E-03  1.70674260E-01
 -3.45721691E-02 -5.82898616E-02 -3.30217023E-02 -5.33914828E-02  2.18598671E-01
  1.42252447E-02 -2.78565434E-02 -5.09212933E-02 -4.74884657E-02  2.26932612E-01
 -2.33298447E-02 -1.67453494E-03 -6.59254467E-03  1.41729033E-01 -6.15598710E-02
 -5.01127577E-02 -5.59926893E-02 -4.76139538E-02  1.64800262E-01  1.47276669E-01
Grdnt Energy                               R     -5.639184771527309E+01
Grdnt NVar                                 I               12
Grdnt IGetFC                               I                4
Internal Forces                            R   N=          12
 -1.06191576E-01  2.70966446E-02  9.29439950E-02  1.71229675E-01 -4.07696992E-02
 -3.46503552E-02 -3.66889201E-02  3.87138226E-02 -2.75486841E-02 -2.83491793E-02
 -2.50407680E-02 -3.07449558E-02
Internal Force Constants                   R   N=          78
  9.90106158E-01 -4.68303440E-02  4.59255033E-01 -4.23277876E-02 -3.98473609E-02
  1.80250559E-01 -9.09106837E-01  4.72301343E-02  4.04908786E-02  9.47424350E-01
 -1.36133265E-02  4.68682190E-02  1.57699783E-02 -4.81701469E-02 -2.45416702E-02
 -1.18822519E-02  1.66397160E-02  4.73895684E-02 -4.05683526E-02 -8.24644195E-03
 -2.75281655E-02 -2.65900754E-02 -1.40118651E-02  1.41921827E-02 -2.17709844E-02
  6.85170627E-02 -7.42871068E-03  4.11800238E-02  4.59952626E-02 -4.53267740E-01
  3.31811592E-02  1.56011088E-03 -3.13296759E-02  6.89454168E-05 -4.76120960E-02
  5.03375857E-01  1.58856544E-02 -8.95053404E-03 -2.43502520E-02 -6.85538944E-04
 -8.42340030E-03  1.22583307E-02 -7.57322611E-03 -3.52404367E-02  3.73884862E-02
 -5.44092453E-02  1.36120749E-02 -1.23552736E-02 -1.65465284E-02 -6.73358922E-03
  5.98793152E-02  7.18103602E-03  5.67224974E-05 -7.62688930E-03  6.37747377E-02
  1.44484080E-02 -5.28555122E-02 -9.10377660E-03 -6.20098307E-04  9.00312717E-03
 -8.46221943E-03 -6.89310156E-03 -1.87784418E-02  5.26143710E-02 -6.93520816E-03
  6.26308268E-02  3.83243852E-02  3.21581790E-02 -2.03289875E-01  7.63012948E-04
  8.99863933E-04 -3.21197336E-02  8.09754069E-04  1.99033207E-03 -2.52965649E-02
 -3.98971523E-02 -3.50483750E-02  2.60706174E-01
Mulliken Charges                           R   N=           4
 -6.91127453E-01  2.44894561E-01  2.33199962E-01  2.13032930E-01
ONIOM Charges                              I   N=          16
           0           0           0           0           0           0
           0           0           0           0           0           0
           0           0           0           0
ONIOM Multiplicities                       I   N=          16
           1           0           0           0           0           0
           0           0           0           0           0           0
           0           0           0           0
Atom Layers                                I   N=           4
           1           1           1           1
Atom Modifiers                             I   N=           4
           0           0           0           0
Force Field                                I                0
Atom Modified Types                        C   N=           4
                                                
Int Atom Modified Types                    I   N=           4
           0           0           0           0
Link Atoms                                 I   N=           4
           0           0           0           0
Atom Modified MM Charges                   R   N=           4
  0.00000000E+00  0.00000000E+00  0.00000000E+00  0.00000000E+00
Link Distances                             R   N=          16
  0.00000000E+00  0.00000000E+00  0.00000000E+00  0.00000000E+00  0.00000000E+00
  0.00000000E+00  0.00000000E+00  0.00000000E+00  0.00000000E+00  0.00000000E+00
  0.00000000E+00  0.00000000E+00  0.00000000E+00  0.00000000E+00  0.00000000E+00
  0.00000000E+00
Cartesian Gradient                         R   N=          12
  1.06191576E-01 -2.70966446E-02 -9.29439950E-02 -1.71229675E-01  4.07696992E-02
  3.46503552E-02  3.66889201E-02 -3.87138226E-02  2.75486841E-02  2.83491793E-02
  2.50407680E-02  3.07449558E-02
Cartesian Force Constants                  R   N=          78
  9.90106158E-01 -4.68303440E-02  4.59255033E-01 -4.23277876E-02 -3.98473609E-02
  1.80250559E-01 -9.09106837E-01  4.72301343E-02  4.04908786E-02  9.47424350E-01
 -1.36133265E-02  4.68682190E-02  1.57699783E-02 -4.81701469E-02 -2.45416702E-02
 -1.18822519E-02  1.66397160E-02  4.73895684E-02 -4.05683526E-02 -8.24644195E-03
 -2.75281655E-02 -2.65900754E-02 -1.40118651E-02  1.41921827E-02 -2.17709844E-02
  6.85170627E-02 -7.42871068E-03  4.11800238E-02  4.59952626E-02 -4.53267740E-01
  3.31811592E-02  1.56011088E-03 -3.13296759E-02  6.89454168E-05 -4.76120960E-02
  5.03375857E-01  1.58856544E-02 -8.95053404E-03 -2.43502520E-02 -6.85538944E-04
 -8.42340030E-03  1.22583307E-02 -7.57322611E-03 -3.52404367E-02  3.73884862E-02
 -5.44092453E-02  1.36120749E-02 -1.23552736E-02 -1.65465284E-02 -6.73358922E-03
  5.98793152E-02  7.18103602E-03  5.67224974E-05 -7.62688930E-03  6.37747377E-02
  1.44484080E-02 -5.28555122E-02 -9.10377660E-03 -6.20098307E-04  9.00312717E-03
 -8.46221943E-03 -6.89310156E-03 -1.87784418E-02  5.26143710E-02 -6.93520816E-03
  6.26308268E-02  3.83243852E-02  3.21581790E-02 -2.03289875E-01  7.63012948E-04
  8.99863933E-04 -3.21197336E-02  8.09754069E-04  1.99033207E-03 -2.52965649E-02
 -3.98971523E-02 -3.50483750E-02  2.60706174E-01
Dipole Moment                              R   N=           3
  6.95417943E-01  6.58629349E-01  6.10573824E-01
Dipole Derivatives                         R   N=          36
 -3.31152554E-01  1.08316866E-01  1.11880605E-01  6.05535799E-02 -2.44464330E-01
  6.42284367E-02  2.56155497E-02  2.69516508E-02 -1.65503297E-01 -1.37840712E-01
  2.09213311E-02  1.67621426E-02 -1.15381108E-01  2.33957767E-01  3.99192875E-02
 -8.48455128E-02  3.44559902E-02  2.07738430E-01  2.44686974E-01 -1.57430215E-01
  3.59297944E-02  2.96101666E-02 -1.96022578E-01  3.00857563E-02  2.77377284E-02
 -9.59175756E-02  2.00864613E-01  2.24306292E-01  2.81920174E-02 -1.64572542E-01
  2.52173613E-02  2.06529141E-01 -1.34233481E-01  3.14922347E-02  3.45099345E-02
 -2.43099745E-01
Polarizability                             R   N=           6
  6.62102599E+00 -1.45323007E-01  8.26327570E+00 -2.04855633E-01 -3.50186391E-01
  1.01009740E+01
QEq coupling tensors                       R   N=          24
  2.04277079E-01  2.65796788E-01  6.69192451E-03  2.68721292E-01  2.49411450E-01
 -2.10969004E-01 -8.52815398E-01  5.87669245E-02  4.25636869E-01  5.13635878E-02
  1.27068135E-02  4.27178529E-01  2.35522235E-01  5.39126303E-02 -4.74372847E-01
  9.77527751E-03  4.12438852E-02  2.38850612E-01  1.32590152E-01  7.25308443E-03
  1.33993446E-01  4.33249973E-02  3.81368614E-02 -2.66583598E-01
