NH3 B2PLYP Freq                                                         
Freq      RB2PLYP-Full                                                6-31G               
Number of atoms                            I                4
Info1-9                                    I   N=           9
          11          11           0           0           0         100
           6           2       -4702
Full Title                                 C   N=           2
NH3 B2PLYP Freq         
Route                                      C   N=           6
#p RB2PLYP(Full)/6-31G nosymm SCF(VeryTight) Freq Int(Grid=9
9590)       
Charge                                     I                0
Multiplicity                               I                1
Number of electrons                        I               10
Number of alpha electrons                  I                5
Number of beta electrons                   I                5
Number of basis functions                  I               15
Number of independent functions            I               15
Number of point charges in /Mol/           I                0
Number of translation vectors              I                0
Atomic numbers                             I   N=           4
           7           1           1           1
Nuclear charges                            R   N=           4
  7.00000000E+00  1.00000000E+00  1.00000000E+00  1.00000000E+00
Current cartesian coordinates              R   N=          12
  0.00000000E+00  0.00000000E+00  0.00000000E+00  1.70075351E+00  0.00000000E+00
  0.00000000E+00  0.00000000E+00  1.88972612E+00  0.00000000E+00  0.00000000E+00
  0.00000000E+00  2.07869874E+00
Number of symbols in /Mol/                 I                0
Force Field                                I                0
Atom Types                                 C   N=           4
                                                
Int Atom Types                             I   N=           4
           0           0           0           0
MM charges                                 R   N=           4
  0.00000000E+00  0.00000000E+00  0.00000000E+00  0.00000000E+00
Integer atomic weights                     I   N=           4
          14           1           1           1
Real atomic weights                        R   N=           4
  1.40030740E+01  1.00782504E+00  1.00782504E+00  1.00782504E+00
Atom fragment info                         I   N=           4
           0           0           0           0
Atom residue num                           I   N=           4
           0           0           0           0
Nuclear spins                              I   N=           4
           2           1           1           1
Nuclear ZEff                               R   N=           4
 -4.55000000E+00 -1.00000000E+00 -1.00000000E+00 -1.00000000E+00
Nuclear ZNuc                               R   N=           4
  7.00000000E+00  1.00000000E+00  1.00000000E+00  1.00000000E+00
Nuclear QMom                               R   N=           4
  2.04400000E+00  0.00000000E+00  0.00000000E+00  0.00000000E+00
Nuclear GFac                               R   N=           4
  4.03761000E-01  2.79284600E+00  2.79284600E+00  2.79284600E+00
MicOpt                                     I   N=           4
          -1          -1          -1          -1
Number of residues                         I                0
Number of secondary structures             I                0
Number of contracted shells                I                9
Number of primitive shells                 I               22
Pure/Cartesian d shells                    I                1
Pure/Cartesian f shells                    I                0
Highest angular momentum                   I                1
Largest degree of contraction              I                6
Shell types                                I   N=           9
           0          -1          -1           0           0           0
           0           0           0
Number of primitives per shell             I   N=           9
           6           3           1           3           1           3
           1           3           1
Shell to atom map                          I   N=           9
           1           1           1           2           2           3
           3           4           4
Primitive exponents                        R   N=          22
  4.17351146E+03  6.27457911E+02  1.42902093E+02  4.02343293E+01  1.28202129E+01
  4.39043701E+00  1.16263619E+01  2.71627981E+00  7.72218397E-01  2.12031498E-01
  1.87311370E+01  2.82539436E+00  6.40121692E-01  1.61277759E-01  1.87311370E+01
  2.82539436E+00  6.40121692E-01  1.61277759E-01  1.87311370E+01  2.82539436E+00
  6.40121692E-01  1.61277759E-01
Contraction coefficients                   R   N=          22
  1.83477216E-03  1.39946270E-02  6.85865518E-02  2.32240873E-01  4.69069948E-01
  3.60455199E-01 -1.14961182E-01 -1.69117479E-01  1.14585195E+00  1.00000000E+00
  3.34946043E-02  2.34726953E-01  8.13757326E-01  1.00000000E+00  3.34946043E-02
  2.34726953E-01  8.13757326E-01  1.00000000E+00  3.34946043E-02  2.34726953E-01
  8.13757326E-01  1.00000000E+00
P(S=P) Contraction coefficients            R   N=          22
  0.00000000E+00  0.00000000E+00  0.00000000E+00  0.00000000E+00  0.00000000E+00
  0.00000000E+00  6.75797439E-02  3.23907296E-01  7.40895140E-01  1.00000000E+00
  0.00000000E+00  0.00000000E+00  0.00000000E+00  0.00000000E+00  0.00000000E+00
  0.00000000E+00  0.00000000E+00  0.00000000E+00  0.00000000E+00  0.00000000E+00
  0.00000000E+00  0.00000000E+00
Coordinates of each shell                  R   N=          27
  0.00000000E+00  0.00000000E+00  0.00000000E+00  0.00000000E+00  0.00000000E+00
  0.00000000E+00  0.00000000E+00  0.00000000E+00  0.00000000E+00  1.70075351E+00
  0.00000000E+00  0.00000000E+00  1.70075351E+00  0.00000000E+00  0.00000000E+00
  0.00000000E+00  1.88972612E+00  0.00000000E+00  0.00000000E+00  1.88972612E+00
  0.00000000E+00  0.00000000E+00  0.00000000E+00  2.07869874E+00  0.00000000E+00
  0.00000000E+00  2.07869874E+00
Num ILSW                                   I              100
ILSW                                       I   N=         100
           0           1           0           0           2           0
           0           0           0           0         419          -1
       99590           0           0           0           2           0
           0           0           0           0           1           0
           1           1           0           0           0           0
           0           0      100000           0          -1           0
           0           0           0           0           0           0
           0           0           0           1           1           0
           0 -2000000000           1           0           0           0
           0           0           4          52           0           0
           0           0          47           0           0           0
           0           0           0           4           4           1
           0           0           0           0           0           0
           0           0           0           0           0           0
           0           0           0           0           0           0
           0           0           0           0           0           0
           0           0           0           0
Num RLSW                                   I               52
RLSW                                       R   N=          52
  4.70000000E-01  4.70000000E-01  7.30000000E-01  7.30000000E-01  5.30000000E-01
  0.00000000E+00  0.00000000E+00  1.00000000E+00  0.00000000E+00  0.00000000E+00
  0.00000000E+00  0.00000000E+00  1.00000000E+00  0.00000000E+00  0.00000000E+00
  0.00000000E+00  0.00000000E+00  1.00000000E+00  0.00000000E+00  0.00000000E+00
  0.00000000E+00  0.00000000E+00  1.00000000E+00  0.00000000E+00  0.00000000E+00
  0.00000000E+00  0.00000000E+00  1.00000000E+00  0.00000000E+00  0.00000000E+00
  0.00000000E+00  0.00000000E+00  1.00000000E+00  0.00000000E+00  0.00000000E+00
  0.00000000E+00  0.00000000E+00  0.00000000E+00  2.70000000E-01  2.70000000E-01
  0.00000000E+00  1.00000000E+00  0.00000000E+00  0.00000000E+00  0.00000000E+00
  0.00000000E+00  0.00000000E+00  0.00000000E+00  0.00000000E+00  0.00000000E+00
  0.00000000E+00  0.00000000E+00
MxBond                                     I                3
NBond                                      I   N=           4
           3           1           1           1
IBond                                      I   N=          12
           2           3           4           1           0           0
           1           0           0           1           0           0
RBond                                      R   N=          12
  1.00000000E+00  1.00000000E+00  1.00000000E+00  1.00000000E+00  0.00000000E+00
  0.00000000E+00  1.00000000E+00  0.00000000E+00  0.00000000E+00  1.00000000E+00
  0.00000000E+00  0.00000000E+00
Virial Ratio                               R      1.998404811466443E+00
SCF Energy                                 R     -5.634986900681338E+01
MP2 Energy                                 R     -5.638926028763078E+01
Total Energy                               R     -5.638926028763078E+01
Post-SCF wavefunction norm                 R      1.458234176955269E+00
RMS Force                                  R      7.081000968456030E-02
RMS Density                                R      2.260534298486982E-09
NImag                                      I                0
Job Status                                 I                1
Nuclear derivative order                   I                2
External E-field                           R   N=          35
  0.00000000E+00  0.00000000E+00  0.00000000E+00  0.00000000E+00  0.00000000E+00
  0.00000000E+00  0.00000000E+00  0.00000000E+00  0.00000000E+00  0.00000000E+00
  0.00000000E+00  0.00000000E+00  0.00000000E+00  0.00000000E+00  0.00000000E+00
  0.00000000E+00  0.00000000E+00  0.00000000E+00  0.00000000E+00  0.00000000E+00
  0.00000000E+00  0.00000000E+00  0.00000000E+00  0.00000000E+00  0.00000000E+00
  0.00000000E+00  0.00000000E+00  0.00000000E+00  0.00000000E+00  0.00000000E+00
  0.00000000E+00  0.00000000E+00  0.00000000E+00  0.00000000E+00  0.00000000E+00
IOpCl                                      I                0
IROHF                                      I                0
Alpha Orbital Energies                     R   N=          15
 -1.48368214E+01 -1.04409116E+00 -5.32103774E-01 -4.97330336E-01 -3.56787457E-01
  1.11690020E-01  2.04985695E-01  2.42216488E-01  7.32570222E-01  7.61298604E-01
  8.43317207E-01  9.80304536E-01  1.05748100E+00  1.20241857E+00  1.70110225E+00
Alpha MO coefficients                      R   N=         225
  9.95581824E-01  2.78113858E-02  2.16288630E-03  1.84473231E-03  1.63575018E-03
 -1.64040097E-02 -2.94465153E-03 -2.49976598E-03 -2.15338033E-03 -2.71563481E-04
  4.55281892E-03  6.73791011E-05  3.38927925E-03  3.70396867E-04  2.50040299E-03
 -1.91912286E-01  4.01623548E-01  1.31362994E-01  9.81213539E-02  7.28467857E-02
  4.00296256E-01  4.97628251E-02  4.82573918E-02  4.42284707E-02  1.87932191E-01
  2.28571092E-03  1.47812072E-01  2.10581563E-03  1.15586218E-01  4.26444139E-03
  8.56804388E-03 -1.09566433E-02  3.93138574E-01 -2.88040826E-01 -8.70181366E-02
 -7.76701554E-02  1.57452007E-01 -1.36431017E-01 -4.76206964E-02  2.99656690E-01
  2.16053834E-01 -2.29400956E-01 -1.70573034E-01 -7.34767552E-02 -5.88691132E-02
 -8.99539769E-03  1.04224013E-02 -1.18320290E-01 -2.75790892E-01  3.69748699E-01
  7.33407634E-02 -4.90207414E-02 -1.31936422E-01  2.00669501E-01 -8.32277815E-02
 -6.36592295E-02 -2.01956931E-01 -1.59355543E-01  2.85641390E-01  2.42381849E-01
 -1.01868748E-01  2.27869211E-01 -2.92012601E-01 -2.91159200E-01 -2.93423439E-01
  4.17953124E-01 -2.28698317E-01 -2.31533617E-01 -2.37117088E-01 -7.79032413E-02
 -5.47227012E-02 -8.34820462E-02 -6.97547915E-02 -9.11796586E-02 -8.61624675E-02
 -9.88723855E-02  1.08371727E-01  7.77295783E-02  1.29575976E-01  2.20828068E-01
  1.64136010E+00  2.70577649E-01  3.40531352E-01  4.78255984E-01 -3.33226595E-03
 -7.96086086E-01 -2.75594951E-02 -8.28779287E-01 -7.26720017E-02 -9.94299563E-01
  1.62781073E-02 -7.67720303E-03 -8.40254841E-02 -2.52614519E-01  3.02181742E-01
 -4.66950152E-01 -2.37702357E-01 -6.15747502E-01  6.46057112E-01  1.60616025E-02
  5.72520232E-01  7.54286927E-02  1.33322735E+00 -1.17603885E-01 -1.30271383E+00
  1.10777148E-02 -5.28190219E-04 -3.01888019E-01  2.13251212E-01  8.04212884E-02
 -4.26822147E-01 -8.56320817E-01  5.30096887E-01  1.76993334E-01  5.16427228E-02
  2.05996264E+00 -5.66466091E-02 -1.17938374E+00 -2.79605927E-02 -3.76703233E-01
 -9.02564387E-03 -6.75396882E-02 -3.88311010E-01  7.62172001E-02 -5.05988340E-03
  5.32458857E-01  1.19062045E+00 -4.14559915E-01 -1.26414939E-01 -7.72449288E-01
 -1.97563617E-01  4.89998110E-01 -1.77181629E-01  3.31076108E-01 -2.58368126E-01
 -9.04329709E-03 -5.45954134E-02 -1.17605163E-01 -3.49958068E-01  1.43941386E-01
  3.89107950E-01  2.09281098E-01  8.58694746E-01 -4.79270678E-01 -7.85761777E-02
 -5.64725508E-02 -6.80711126E-01  1.12243705E-01  7.97973877E-01 -5.44028541E-01
 -3.86311830E-02  2.04901638E-01 -4.25152168E-01 -5.34436332E-01 -6.89928662E-01
  2.56413166E-01  4.05665715E-01  6.71454016E-01  9.71977557E-01  1.10359235E-01
 -1.56619709E-01  5.22583765E-03 -2.83312024E-01 -2.32683311E-01 -2.22487751E-01
 -3.54324927E-02  4.07788876E-01 -3.12332208E-01 -4.01219092E-01  7.50501309E-01
 -4.12651102E-01  4.96549451E-01  5.96767641E-01 -9.91011718E-01  2.77627767E-02
 -4.34593622E-01  9.48500357E-02 -5.44199836E-01 -7.24346702E-01  1.49958005E+00
 -4.03795318E-02  5.49886004E-01 -5.34961034E-01  7.25548127E-01 -2.19561173E-02
 -7.02805393E-01  7.42484239E-01 -8.70812780E-01  5.76659087E-02  2.64187652E-01
 -8.90335554E-01 -8.05904684E-01  1.54130241E+00 -1.36734743E-01  1.20745437E-01
  6.71301658E-02 -1.29596838E+00 -6.39998382E-01 -1.67124060E-02  8.12053145E-02
  1.93990824E+00  6.67660655E-01 -3.50705974E-03 -1.00135724E-01  8.73721759E-01
 -1.51946248E+00  2.00508739E-01 -2.67485160E-01  3.98262260E-02 -2.63096432E-02
 -7.26435177E-02 -1.36526131E+00  1.43571995E-01  7.67818964E-03 -8.98306092E-02
  3.71471585E+00  9.32921596E-01  8.71651814E-01  8.00564701E-01 -1.01590224E+00
 -7.94466619E-01 -9.31998878E-01 -5.88440042E-01 -8.85611598E-01 -4.05909090E-01
Orthonormal basis                          R   N=         225
  3.98441339E-02  1.57102238E-01  3.73232351E-02  3.29035473E-02  2.83608478E-02
  2.08130751E-01  5.93710015E-02  5.68327407E-02  5.29618399E-02  1.36065661E-01
  1.94050334E-01  1.25282350E-01  1.86626066E-01  1.13759560E-01  1.77699981E-01
 -5.09700576E-03 -1.13985690E-02 -5.99419452E-02 -1.82038049E-01  2.46984264E-01
 -1.90923136E-03 -7.30267189E-02 -2.34828047E-01  3.35455664E-01 -6.45406323E-02
 -3.74066394E-02 -1.99073061E-01 -1.35717463E-01  2.78725750E-01  2.14576572E-01
  6.88762128E-03  1.47108926E-02  2.60591654E-01 -1.91773335E-01 -7.55886109E-02
  3.72540426E-03  3.18226927E-01 -2.47405098E-01 -1.02519919E-01  2.70878500E-01
  1.70038655E-01 -2.03570327E-01 -1.45750255E-01 -8.31910415E-02 -6.59613813E-02
 -1.44497861E-01 -2.59938815E-01  2.88773275E-01  2.62170097E-01  2.40580789E-01
 -2.39175711E-01  2.94553646E-01  2.73748637E-01  2.56997444E-01  9.47268002E-02
 -2.62845571E-02  8.92564571E-02 -1.80759775E-02  8.45868303E-02 -9.73533039E-03
  9.23124770E-01  1.52723765E-01  1.04365455E-01  1.43649247E-01  1.99411035E-01
 -5.06743648E-02  3.66641707E-02  5.86300898E-02  8.04360764E-02  4.52807216E-03
 -1.11161307E-01 -2.90289336E-02 -1.09940381E-01 -7.34511567E-02 -1.17099573E-01
 -2.03534165E-01  2.16581925E-01 -1.50679063E-01 -3.00742016E-01  8.53480658E-01
  7.46824004E-02 -3.72156698E-02 -1.96473985E-02 -4.70425853E-02  1.30922272E-01
  2.84912974E-02  2.10676079E-01  8.26735493E-02 -4.92787029E-01 -3.00701511E-01
 -2.13203452E-01  3.48181796E-01 -3.79217039E-01  8.77201254E-01  1.29977023E-01
  1.05443883E-01 -3.46756414E-04 -1.85331229E-01 -4.34114737E-02  2.72822281E-01
  8.71593868E-02 -3.76860128E-01 -3.46001114E-01 -2.05931298E-02 -7.65337662E-02
 -2.50426950E-01  5.79684257E-01  8.86392681E-01  1.14738055E-01  4.57753597E-03
  1.59018842E-01 -4.12594753E-01 -9.10708798E-02 -2.08900302E-02 -1.24153023E-01
 -4.45855351E-01  8.01008574E-02 -1.27496051E-01  8.39259403E-02 -7.18927558E-02
 -1.03944041E-01  5.94871046E-01 -3.39640370E-01 -3.56587101E-01 -5.56881577E-01
 -2.38258210E-01  1.09699341E-01  4.27969428E-01  8.22426527E-01  5.41316427E-01
 -3.73168903E-01  1.04721048E-01 -2.36737742E-01 -3.28039878E-01 -3.81347166E-02
  1.07853194E-02 -4.48588708E-02 -3.71687355E-03  2.89328735E-01 -1.92882047E-01
  2.21903173E-02  2.94397839E-01 -8.03109130E-01  3.83823082E-01 -4.50988969E-01
  1.52419006E-01  9.31116832E-01 -3.50866556E-01 -4.63991665E-01  2.21291497E-01
 -9.14603977E-02  5.96997972E-01 -2.84673411E-01 -2.04655050E-01  5.53105448E-02
 -9.05093744E-02  7.53468957E-01  1.58369844E-01 -2.97452797E-01 -5.36638158E-01
 -2.07867763E-02  2.89564637E-01 -2.82179408E-01  8.07818629E-01 -5.17498422E-01
  1.12102906E-01 -4.97509534E-01 -1.68026091E-01 -4.72047215E-02  1.39603576E-02
  9.22367652E-02 -4.55264982E-01 -3.34925162E-01 -2.52666504E-01  1.06508549E+00
 -3.58393013E-01  8.37533791E-01 -3.77848997E-01  7.25978686E-01 -3.99570241E-01
  3.85533208E-03  1.43233529E-01 -1.26066271E-01 -2.67950465E-01  4.18400623E-01
 -2.22976899E-01  2.93888122E-01  7.61344571E-01 -1.33009839E+00  1.81477100E-01
 -5.83843367E-01  3.14788876E-01 -1.34115456E+00 -3.22004810E-01  2.08905434E+00
 -5.98520022E-03 -1.92341612E-01  3.93641346E-01 -3.30946586E-01 -1.03669593E-01
  3.43006514E-01 -1.20947466E+00  1.18687692E+00  3.93189114E-01 -3.94169576E-01
  2.20296700E+00  1.72416007E-01 -1.89899396E+00 -4.45419107E-03 -5.56063259E-01
 -8.26723360E-02 -1.62797046E+00 -1.40639655E-01 -1.06729516E-01 -1.02446345E-01
  4.66708705E+00  1.37555201E+00  9.52716311E-01  7.08708479E-01 -5.50407345E-01
 -1.86372785E+00 -5.58757127E-01 -1.04517391E+00 -5.40104867E-01 -6.24334856E-01
Total SCF Density                          R   N=         120
  2.07709013E+00 -1.45576730E-01  4.28455999E-01  2.22457650E-02 -3.85254344E-02
  5.42179805E-01  2.53576282E-02 -5.32110183E-02  3.46147181E-02  5.06866032E-01
  2.69347931E-02 -6.55051892E-02  3.45945841E-02  3.13504576E-02  4.71385803E-01
 -2.74109751E-01  5.14332448E-01 -2.17423558E-01 -1.60596173E-01 -1.19254832E-01
  6.93205036E-01  2.52109779E-02 -6.88906740E-02  2.82028042E-01  7.92637012E-02
  7.77983127E-02 -1.82883080E-01  1.63964195E-01  2.37080108E-02 -6.66557363E-02
  7.18380459E-02  2.95656356E-01  6.90746994E-02 -1.52983277E-01  8.06928351E-02
  1.83926964E-01  2.26196989E-02 -6.74303118E-02  6.51633964E-02  6.34969815E-02
  3.02270484E-01 -1.25896102E-01  7.82012234E-02  7.41232697E-02  2.01442574E-01
 -5.01696315E-02  1.07136052E-01  3.50179230E-01 -4.44759816E-02 -4.06009639E-02
  2.65894665E-02  1.56861223E-01 -5.58935140E-03 -8.37281945E-03  2.76216985E-01
  2.41847593E-02 -2.89114201E-02  2.17522196E-01 -5.70199909E-02 -5.22152844E-02
 -8.69619965E-02  9.95081183E-02 -1.66168138E-02 -1.99922455E-02  1.49463183E-01
  1.07504567E-01 -3.98889885E-02  8.15045657E-02 -4.49915413E-02  3.21169868E-01
 -3.88958704E-02  5.45637281E-02  4.55977639E-04  1.68809274E-01 -6.53997337E-03
 -3.53019075E-02 -6.36000162E-02  2.44458132E-01  2.00959909E-02 -2.94938463E-02
 -5.51012207E-02  2.27206864E-01 -4.69038411E-02 -5.36114075E-02 -5.99545045E-03
  1.21079961E-01 -1.44581979E-02 -6.40431760E-02 -4.57421847E-02  1.54894680E-01
  1.18742004E-01 -3.14486145E-02  5.88750781E-02 -4.17471137E-02 -3.94460654E-02
  2.94368564E-01  6.96198793E-02  2.06405049E-03 -1.94774961E-03  1.75100377E-01
 -3.39312779E-02 -5.76063305E-02 -3.22693858E-02 -5.27610183E-02  2.17327757E-01
  1.55270110E-02 -2.93606499E-02 -5.21925714E-02 -4.87599157E-02  2.40679764E-01
 -2.39940123E-02 -2.48147758E-03 -7.59674526E-03  1.44111703E-01 -6.06006897E-02
 -4.68251305E-02 -5.52450799E-02 -4.51114165E-02  1.63819802E-01  1.39325883E-01
Total MP2 Density                          R   N=         120
  2.07695105E+00 -1.45334491E-01  4.34846310E-01  2.18831118E-02 -3.65806832E-02
  5.46836538E-01  2.48084606E-02 -5.03039239E-02  3.22735113E-02  5.14216175E-01
  2.61996436E-02 -6.16923069E-02  3.19999137E-02  2.87319109E-02  4.81867522E-01
 -2.75004059E-01  5.08223936E-01 -2.20234589E-01 -1.63979741E-01 -1.22863127E-01
  7.14998976E-01  2.57214322E-02 -6.76344579E-02  2.73489778E-01  7.76860636E-02
  7.57387461E-02 -1.89641626E-01  1.62647863E-01  2.40582090E-02 -6.45837041E-02
  7.07016835E-02  2.86808463E-01  6.70298749E-02 -1.60432730E-01  8.13534161E-02
  1.79858536E-01  2.28033705E-02 -6.44117723E-02  6.38636308E-02  6.17950042E-02
  2.93868030E-01 -1.33989425E-01  7.82860200E-02  7.38646263E-02  1.95087059E-01
 -4.99648206E-02  1.06101146E-01  3.45055160E-01 -4.36230962E-02 -3.97492950E-02
  2.34888720E-02  1.51575649E-01 -3.85636619E-03 -6.44495186E-03  2.77099997E-01
  2.44893588E-02 -2.92546508E-02  2.23765033E-01 -5.58649030E-02 -5.04048506E-02
 -9.27261611E-02  1.02953238E-01 -1.33779026E-02 -1.62688045E-02  1.56553687E-01
  1.19364391E-01 -3.95966062E-02  8.10092951E-02 -4.42579120E-02  3.17083180E-01
 -3.81199092E-02  5.05915547E-02  1.54113193E-03  1.62813690E-01 -5.04015813E-03
 -3.47536098E-02 -6.48708919E-02  2.46395307E-01  2.07809177E-02 -3.01778651E-02
 -5.46132278E-02  2.31416385E-01 -4.51607541E-02 -5.97734694E-02 -3.56193829E-03
  1.23053609E-01 -1.12036576E-02 -6.56011612E-02 -5.01227568E-02  1.61264876E-01
  1.30973393E-01 -3.10867723E-02  5.88473658E-02 -4.10900140E-02 -3.87578163E-02
  2.91327244E-01  6.50290012E-02  2.84085263E-03 -9.65717202E-04  1.68714814E-01
 -3.33981874E-02 -5.81858566E-02 -3.17789877E-02 -5.30054250E-02  2.20333689E-01
  1.64651242E-02 -3.00097712E-02 -5.14424562E-02 -4.74145879E-02  2.42628550E-01
 -3.10251621E-02 -4.48362550E-04 -5.18296771E-03  1.43838456E-01 -6.14991403E-02
 -4.96240447E-02 -5.55515667E-02 -4.68240675E-02  1.69291628E-01  1.50881725E-01
Grdnt Energy                               R     -5.638926028763078E+01
Grdnt NVar                                 I                0
Grdnt IGetFC                               I                4
Mulliken Charges                           R   N=           4
 -7.26767254E-01  2.55217663E-01  2.45652594E-01  2.25896997E-01
ONIOM Charges                              I   N=          16
           0           0           0           0           0           0
           0           0           0           0           0           0
           0           0           0           0
ONIOM Multiplicities                       I   N=          16
           1           0           0           0           0           0
           0           0           0           0           0           0
           0           0           0           0
Atom Layers                                I   N=           4
           1           1           1           1
Atom Modifiers                             I   N=           4
           0           0           0           0
Force Field                                I                0
Atom Modified Types                        C   N=           4
                                                
Int Atom Modified Types                    I   N=           4
           0           0           0           0
Link Atoms                                 I   N=           4
           0           0           0           0
Atom Modified MM Charges                   R   N=           4
  0.00000000E+00  0.00000000E+00  0.00000000E+00  0.00000000E+00
Link Distances                             R   N=          16
  0.00000000E+00  0.00000000E+00  0.00000000E+00  0.00000000E+00  0.00000000E+00
  0.00000000E+00  0.00000000E+00  0.00000000E+00  0.00000000E+00  0.00000000E+00
  0.00000000E+00  0.00000000E+00  0.00000000E+00  0.00000000E+00  0.00000000E+00
  0.00000000E+00
Cartesian Gradient                         R   N=          12
  1.13825195E-01 -1.94184181E-02 -8.57676156E-02 -1.76121248E-01  3.91073391E-02
  3.31216652E-02  3.51963782E-02 -4.36189406E-02  2.63233271E-02  2.70996744E-02
  2.39300196E-02  2.63226233E-02
Cartesian Force Constants                  R   N=          78
  9.80792001E-01 -4.68155503E-02  4.53713238E-01 -4.17479782E-02 -3.88435962E-02
  1.77328738E-01 -9.07168182E-01  4.67533042E-02  3.97757605E-02  9.45243228E-01
 -1.35166657E-02  5.15096956E-02  1.61590432E-02 -4.72021629E-02 -2.85452086E-02
 -1.21318105E-02  1.70404047E-02  5.15683167E-02 -3.93787611E-02 -8.30498156E-03
 -3.14680528E-02 -2.24386939E-02 -1.38793972E-02  1.45431439E-02 -2.17875939E-02
  6.75121020E-02 -7.47514571E-03  3.76771745E-02  4.55664817E-02 -4.55282989E-01
  3.23696691E-02  1.39484557E-03 -3.12183203E-02 -2.93776761E-04 -4.67208949E-02
  5.04710127E-01  1.62416697E-02 -9.54787670E-03 -2.09279919E-02 -1.04118647E-03
 -8.44741476E-03  1.14095388E-02 -7.60184577E-03 -3.39590639E-02  3.40654520E-02
 -5.11851250E-02  1.39416433E-02 -1.25709262E-02 -1.62874518E-02 -6.79327347E-03
  5.89857174E-02  6.54911340E-03 -2.40432340E-04 -7.59863741E-03  6.09234634E-02
  1.47657343E-02 -4.99399448E-02 -9.68511600E-03 -9.45986845E-04  8.25383333E-03
 -8.44164635E-03 -6.91180991E-03 -1.82088173E-02  5.19543554E-02 -6.90793752E-03
  5.98949288E-02  3.76381191E-02  3.13510682E-02 -2.07969063E-01  6.44187084E-04
  5.93353147E-04 -3.15098027E-02  5.33847581E-04  1.88317161E-03 -2.45469989E-02
 -3.88161537E-02 -3.38275930E-02  2.64025864E-01
Nonadiabatic coupling                      R   N=          12
  0.00000000E+00  0.00000000E+00  0.00000000E+00  0.00000000E+00  0.00000000E+00
  0.00000000E+00  0.00000000E+00  0.00000000E+00  0.00000000E+00  0.00000000E+00
  0.00000000E+00  0.00000000E+00
Dipole Moment                              R   N=           3
  6.83924972E-01  6.45285015E-01  5.96461827E-01
Dipole Derivatives                         R   N=          36
 -2.96243898E-01  1.17216338E-01  1.20257985E-01  6.82137800E-02 -2.16722334E-01
  7.15160346E-02  3.16922703E-02  3.29048094E-02 -1.47179260E-01 -1.54265816E-01
  1.59352982E-02  1.11655850E-02 -1.18278559E-01  2.24991945E-01  3.72141468E-02
 -8.73276021E-02  3.21115103E-02  2.00566142E-01  2.35019629E-01 -1.59424584E-01
  3.34929492E-02  2.65140036E-02 -2.07005870E-01  2.54543290E-02  2.59058326E-02
 -9.70243407E-02  1.93866876E-01  2.15490086E-01  2.62729473E-02 -1.64916520E-01
  2.35507758E-02  1.98736258E-01 -1.34184510E-01  2.97294991E-02  3.20080211E-02
 -2.47253758E-01
Polarizability                             R   N=           6
  6.76742147E+00 -1.21724239E-01  8.36921349E+00 -1.84633166E-01 -3.29554549E-01
  1.01399401E+01
QEq coupling tensors                       R   N=          24
  2.04675222E-01  2.56727108E-01  5.85393016E-03  2.58999972E-01  2.39595812E-01
 -2.10529152E-01 -8.47770106E-01  5.86336920E-02  4.23150919E-01  5.10380461E-02
  1.25076088E-02  4.24619187E-01  2.32994069E-01  5.41233607E-02 -4.69146881E-01
  9.66329714E-03  4.11471541E-02  2.36152812E-01  1.30082918E-01  7.19684340E-03
  1.31405743E-01  4.35573128E-02  3.82482736E-02 -2.61488661E-01
Number of Normal Modes                     I                6
Vib-LE2Fix                                 I               14
Vib-NDFDPol                                I                0
Vib-NumROA                                 I                0
Vib-NDim                                   I                4
Vib-NDim0                                  I                4
Vib-LFlags                                 I                8
Vib-IFlags                                 I   N=          48
           0           0           1           0           0           0
           0           0           0           0           2           0
           0           0           0           0           0           0
           3           0           0           0           0           0
           0           0           4           0           0           0
           0           0           0           0           5           0
           0           0           0           0           0           0
           6           0           0           0           0           0
Vib-AtMass                                 R   N=           4
  1.40030740E+01  1.00782504E+00  1.00782504E+00  1.00782504E+00
Vib-E2                                     R   N=          84
  1.07237682E+03  1.34353245E+03  1.62359798E+03  2.77947176E+03  3.77544054E+03
  5.15190329E+03  1.15087604E+00  1.05925836E+00  1.04968191E+00  1.03942666E+00
  1.05728719E+00  1.06724753E+00  7.79782679E-01  1.12654468E+00  1.63029021E+00
  4.73117033E+00  8.87929414E+00  1.66897858E+01  1.78885913E+01  1.88540635E+00
  1.64653678E+00  5.80648430E+01  3.78017272E+01  1.78154504E+01  0.00000000E+00
  0.00000000E+00  0.00000000E+00  0.00000000E+00  0.00000000E+00  0.00000000E+00
  0.00000000E+00  0.00000000E+00  0.00000000E+00  0.00000000E+00  0.00000000E+00
  0.00000000E+00  0.00000000E+00  0.00000000E+00  0.00000000E+00  0.00000000E+00
  0.00000000E+00  0.00000000E+00  0.00000000E+00  0.00000000E+00  0.00000000E+00
  0.00000000E+00  0.00000000E+00  0.00000000E+00  0.00000000E+00  0.00000000E+00
  0.00000000E+00  0.00000000E+00  0.00000000E+00  0.00000000E+00  1.00000000E+02
  1.00000000E+02  1.00000000E+02  1.00000000E+02  1.00000000E+02  1.00000000E+02
  0.00000000E+00  0.00000000E+00  0.00000000E+00  0.00000000E+00  0.00000000E+00
  0.00000000E+00  0.00000000E+00  0.00000000E+00  0.00000000E+00  0.00000000E+00
  0.00000000E+00  0.00000000E+00  0.00000000E+00  0.00000000E+00  0.00000000E+00
  0.00000000E+00  0.00000000E+00  0.00000000E+00  0.00000000E+00  0.00000000E+00
  0.00000000E+00  0.00000000E+00  0.00000000E+00  0.00000000E+00