NH3 XYG3 Freq                                                           
Freq      RXYG3-Full                                                  6-31G               
Number of atoms                            I                4
Info1-9                                    I   N=           9
          14          12           0           0           0         100
           6           2        -902
Full Title                                 C   N=           2
NH3 XYG3 Freq           
Route                                      C   N=           4
#p RXYG3(Full)/6-31G nosymm SCF(VeryTight) Freq 
Charge                                     I                0
Multiplicity                               I                1
Number of electrons                        I               10
Number of alpha electrons                  I                5
Number of beta electrons                   I                5
Number of basis functions                  I               15
Number of independent functions            I               15
Number of point charges in /Mol/           I                0
Number of translation vectors              I                0
Atomic numbers                             I   N=           4
           7           1           1           1
Nuclear charges                            R   N=           4
  7.00000000E+00  1.00000000E+00  1.00000000E+00  1.00000000E+00
Current cartesian coordinates              R   N=          12
  0.00000000E+00  0.00000000E+00  0.00000000E+00  1.88972613E+00  0.00000000E+00
  0.00000000E+00  0.00000000E+00  3.77945227E+00  0.00000000E+00  0.00000000E+00
  0.00000000E+00  2.83458920E+00
Number of symbols in /Mol/                 I                0
Force Field                                I                0
Atom Types                                 C   N=           4
                                                
Int Atom Types                             I   N=           4
           0           0           0           0
MM charges                                 R   N=           4
  0.00000000E+00  0.00000000E+00  0.00000000E+00  0.00000000E+00
Integer atomic weights                     I   N=           4
          14           1           1           1
Real atomic weights                        R   N=           4
  1.40030740E+01  1.00782504E+00  1.00782504E+00  1.00782504E+00
Atom fragment info                         I   N=           4
           0           0           0           0
Atom residue num                           I   N=           4
           0           0           0           0
Nuclear spins                              I   N=           4
           2           1           1           1
Nuclear ZEff                               R   N=           4
 -4.55000000E+00 -1.00000000E+00 -1.00000000E+00 -1.00000000E+00
Nuclear ZNuc                               R   N=           4
  7.00000000E+00  1.00000000E+00  1.00000000E+00  1.00000000E+00
Nuclear QMom                               R   N=           4
  2.04400000E+00  0.00000000E+00  0.00000000E+00  0.00000000E+00
Nuclear GFac                               R   N=           4
  4.03761000E-01  2.79284600E+00  2.79284600E+00  2.79284600E+00
MicOpt                                     I   N=           4
          -1          -1          -1          -1
Number of residues                         I                0
Number of secondary structures             I                0
Number of contracted shells                I                9
Number of primitive shells                 I               22
Pure/Cartesian d shells                    I                1
Pure/Cartesian f shells                    I                0
Highest angular momentum                   I                1
Largest degree of contraction              I                6
Shell types                                I   N=           9
           0          -1          -1           0           0           0
           0           0           0
Number of primitives per shell             I   N=           9
           6           3           1           3           1           3
           1           3           1
Shell to atom map                          I   N=           9
           1           1           1           2           2           3
           3           4           4
Primitive exponents                        R   N=          22
  4.17351146E+03  6.27457911E+02  1.42902093E+02  4.02343293E+01  1.28202129E+01
  4.39043701E+00  1.16263619E+01  2.71627981E+00  7.72218397E-01  2.12031498E-01
  1.87311370E+01  2.82539436E+00  6.40121692E-01  1.61277759E-01  1.87311370E+01
  2.82539436E+00  6.40121692E-01  1.61277759E-01  1.87311370E+01  2.82539436E+00
  6.40121692E-01  1.61277759E-01
Contraction coefficients                   R   N=          22
  1.83477216E-03  1.39946270E-02  6.85865518E-02  2.32240873E-01  4.69069948E-01
  3.60455199E-01 -1.14961182E-01 -1.69117479E-01  1.14585195E+00  1.00000000E+00
  3.34946043E-02  2.34726953E-01  8.13757326E-01  1.00000000E+00  3.34946043E-02
  2.34726953E-01  8.13757326E-01  1.00000000E+00  3.34946043E-02  2.34726953E-01
  8.13757326E-01  1.00000000E+00
P(S=P) Contraction coefficients            R   N=          22
  0.00000000E+00  0.00000000E+00  0.00000000E+00  0.00000000E+00  0.00000000E+00
  0.00000000E+00  6.75797439E-02  3.23907296E-01  7.40895140E-01  1.00000000E+00
  0.00000000E+00  0.00000000E+00  0.00000000E+00  0.00000000E+00  0.00000000E+00
  0.00000000E+00  0.00000000E+00  0.00000000E+00  0.00000000E+00  0.00000000E+00
  0.00000000E+00  0.00000000E+00
Coordinates of each shell                  R   N=          27
  0.00000000E+00  0.00000000E+00  0.00000000E+00  0.00000000E+00  0.00000000E+00
  0.00000000E+00  0.00000000E+00  0.00000000E+00  0.00000000E+00  1.88972613E+00
  0.00000000E+00  0.00000000E+00  1.88972613E+00  0.00000000E+00  0.00000000E+00
  0.00000000E+00  3.77945227E+00  0.00000000E+00  0.00000000E+00  3.77945227E+00
  0.00000000E+00  0.00000000E+00  0.00000000E+00  2.83458920E+00  0.00000000E+00
  0.00000000E+00  2.83458920E+00
Num ILSW                                   I              100
ILSW                                       I   N=         100
           0           1           0           0           2           0
           0           0           0           0         402 67108864000
           0           0           0           0           2           0
           0           0           0           0           1           0
           1           1           0           0           0           0
           0           0      100000           0          -1           0
           0           0           0           0           0           0
           0           0           0           1           1           0
           0           0           1           0           0           0
           0           0           4          52           0           0
           0           0          59           0           0           0
           1         402          -5           0           0           0
           0           0           0           0           0           0
           0           0           0           0           0           0
           0           0           0           0           0           0
           0           0           0           0           0           0
           0           0           0           0
Num RLSW                                   I               52
RLSW                                       R   N=          52
  8.00000000E-01  7.20000000E-01  1.00000000E+00  8.10000000E-01  2.00000000E-01
  0.00000000E+00  0.00000000E+00  1.00000000E+00  0.00000000E+00  0.00000000E+00
  0.00000000E+00  0.00000000E+00  1.00000000E+00  0.00000000E+00  0.00000000E+00
  0.00000000E+00  0.00000000E+00  1.00000000E+00  0.00000000E+00  0.00000000E+00
  0.00000000E+00  0.00000000E+00  1.00000000E+00  0.00000000E+00  0.00000000E+00
  0.00000000E+00  0.00000000E+00  1.00000000E+00  0.00000000E+00  0.00000000E+00
  0.00000000E+00  0.00000000E+00  1.00000000E+00  0.00000000E+00  0.00000000E+00
  0.00000000E+00  0.00000000E+00  0.00000000E+00  3.21100000E-01  3.21100000E-01
  8.00000000E-01  7.20000000E-01  1.00000000E+00  8.10000000E-01  1.96700000E-01
  2.10700000E-01  6.78900000E-01  6.78900000E-01  2.00000000E-01  8.03300000E-01
  0.00000000E+00  0.00000000E+00
MxBond                                     I                1
NBond                                      I   N=           4
           1           1           0           0
IBond                                      I   N=           4
           2           1           0           0
RBond                                      R   N=           4
  1.00000000E+00  1.00000000E+00  0.00000000E+00  0.00000000E+00
Virial Ratio                               R      2.014159182451069E+00
SCF Energy                                 R     -5.611766747521104E+01
MP2 Energy                                 R     -5.622917911030783E+01
Total Energy                               R     -5.622917911030783E+01
Post-SCF wavefunction norm                 R      1.741467882992918E+00
RMS Force                                  R      4.380019570121932E-02
RMS Density                                R      1.782172199107435E-09
NImag                                      I                2
Nuclear derivative order                   I                0
External E-field                           R   N=          35
  0.00000000E+00  0.00000000E+00  0.00000000E+00  0.00000000E+00  0.00000000E+00
  0.00000000E+00  0.00000000E+00  0.00000000E+00  0.00000000E+00  0.00000000E+00
  0.00000000E+00  0.00000000E+00  0.00000000E+00  0.00000000E+00  0.00000000E+00
  0.00000000E+00  0.00000000E+00  0.00000000E+00  0.00000000E+00  0.00000000E+00
  0.00000000E+00  0.00000000E+00  0.00000000E+00  0.00000000E+00  0.00000000E+00
  0.00000000E+00  0.00000000E+00  0.00000000E+00  0.00000000E+00  0.00000000E+00
  0.00000000E+00  0.00000000E+00  0.00000000E+00  0.00000000E+00  0.00000000E+00
IOpCl                                      I                0
IROHF                                      I                0
Alpha Orbital Energies                     R   N=          15
 -1.44170774E+01 -8.24314506E-01 -4.01339211E-01 -3.30962429E-01 -2.97727287E-01
 -1.23045372E-01 -3.62482754E-02  1.18383352E-01  6.61383189E-01  7.24988778E-01
  7.43608270E-01  7.88876442E-01  8.10657687E-01  9.07420362E-01  1.13344222E+00
Alpha MO coefficients                      R   N=         225
  9.95280872E-01  2.90175680E-02  2.18385596E-03  6.36855247E-04  1.19274303E-03
 -1.40558373E-02 -3.30161191E-03 -6.31573773E-04 -1.46084477E-03 -4.76009737E-04
  5.09836829E-03  2.62118330E-05  9.27935188E-04  5.71041850E-04  1.42523760E-03
 -2.00282425E-01  4.39318526E-01  1.69100191E-01  1.08323149E-02  4.15906410E-02
  4.45870127E-01  6.92538809E-02  9.42803844E-03  3.34887957E-02  2.13244484E-01
  2.19194069E-02  1.85164563E-02  1.03589748E-02  5.86986978E-02  1.75718555E-02
  5.71124197E-02 -1.05860394E-01  4.30021575E-01 -2.92490063E-02 -2.22540775E-01
 -2.77262938E-01  1.89090503E-01 -1.82310485E-02 -1.32602572E-01  2.62758904E-01
  2.22329457E-01 -3.77750033E-02 -6.11513295E-02 -1.76002213E-01 -2.15809852E-01
  7.29502046E-02 -1.61107524E-01  2.33490744E-01 -1.18541960E-01  3.88254873E-01
 -3.10412523E-01  1.36892425E-01 -8.20894403E-02  2.64372616E-01  9.80347223E-02
  9.77290061E-02 -9.08136495E-02 -1.57992972E-01  2.09442550E-01  2.74698310E-01
  5.16863602E-02 -1.20568401E-01  1.16455880E-01  4.08966312E-01  9.42856270E-02
 -2.17110420E-01  7.03433900E-02  3.10091827E-01  6.76817151E-02  3.74290713E-02
  6.68195077E-02  2.42064347E-01  3.98465594E-01  4.20040501E-02  6.76903421E-02
  3.17314260E-02 -7.27231870E-02  1.03435519E-02 -4.82817235E-01 -3.86407015E-02
 -1.97385551E-01 -1.56248841E-02 -4.27385853E-01 -4.72875284E-02 -1.65679832E-03
  1.02653151E-01  2.81816914E-01  6.09267286E-01  1.18480225E-02  8.00432423E-02
  4.83595931E-02 -9.47361785E-02 -9.89171403E-03  5.50922704E-02 -4.71588729E-01
 -4.32801725E-01 -5.15106728E-02  4.30096284E-02 -5.26645012E-01 -2.31816631E-03
  1.99181048E-01 -5.73673505E-02 -9.50288806E-02  2.61149086E-01  8.75538195E-01
  5.78528279E-02 -8.95787175E-02 -3.88551472E-01  3.76945281E-02  9.81144797E-02
 -1.01713290E+00 -7.71392389E-01  1.82593175E-02  9.85423752E-02  1.15785512E-01
  1.80736818E+00 -5.26754009E-02 -8.42447303E-02 -8.11658956E-02 -2.07901639E-01
  2.08740698E-02  2.03235112E-02  4.30450055E-01  2.90464510E-01  5.14214606E-01
 -4.61626831E-01 -5.39661833E-01 -3.78405030E-01 -7.11409854E-01  6.75095416E-02
  7.94494159E-02 -3.77570874E-01  4.11737375E-01 -7.09814026E-01  1.02189314E+00
  1.98747895E-02  5.93233446E-02  2.26491919E-01 -7.95054876E-01 -7.37005625E-02
 -4.01196638E-01 -7.40622535E-01  9.47634682E-01  3.74597061E-02  5.66619152E-01
  9.45413485E-02  6.92861732E-02 -3.36760950E-01 -2.72942131E-01  3.44903973E-01
 -3.69220637E-02  2.48694925E-01 -4.31279910E-01 -4.33842131E-01  5.44676077E-01
 -1.79251267E-02  9.93172747E-01  5.15561490E-01 -7.72208354E-01 -5.21276586E-01
 -2.38572049E-01 -2.27334323E-02 -1.53789755E-01 -1.90430027E-01  5.82831115E-01
  3.38720838E-02 -6.07528616E-01  4.36966126E-01 -1.29476417E-01  4.84167715E-01
  6.73844304E-01 -4.65966793E-01  2.07134766E-01 -5.05527167E-01 -2.32781472E-01
  3.67022170E-01  1.76583340E-01 -3.02346311E-01  7.95230641E-01 -7.33242233E-01
  3.20898366E-03 -3.99440269E-02 -1.23298181E-01  2.06999755E-01  1.95842580E-01
  4.52945277E-02  4.51413411E-03 -5.82013556E-02 -3.42557061E-01  2.89880223E-01
 -2.16897078E-01  1.18067750E+00 -1.08461804E+00 -2.92655637E-01  5.49113896E-01
 -4.29991372E-02  4.18854561E-01  6.22315623E-01 -9.87203493E-02 -2.97518152E-01
 -6.83923722E-01 -5.19334836E-01  1.99674573E-01  4.39914293E-01 -1.06058999E+00
  1.38599988E+00  3.41527113E-01 -4.62570986E-01 -2.61760156E-01 -5.37301873E-02
  3.13074413E-02 -1.59400081E+00 -1.61320191E-01 -1.06374490E-01 -2.50649829E-01
  2.53333534E+00  9.05817608E-01  1.95803393E-01  4.75841154E-01 -3.55567961E-01
 -1.03424114E+00  1.16250968E-02 -2.70141925E-01 -5.62812359E-01 -2.13974130E-02
Total SCF Density                          R   N=         120
  2.08390421E+00 -1.66275322E-01  4.91083165E-01  3.18354090E-02 -4.56561026E-02
  5.63196197E-01  1.85683318E-02 -4.46735692E-02  1.84070299E-02  3.64557778E-01
  2.66879020E-02 -6.41084893E-02  2.59445805E-02 -1.00893870E-03  4.21774453E-01
 -3.05981836E-01  6.02017507E-01 -2.83250507E-01 -7.81268384E-02 -1.21519996E-01
  8.38730685E-01  1.45303480E-02 -4.04481533E-02  2.66343292E-01  1.55158965E-02
  4.11550995E-02 -1.58537102E-01  1.28499895E-01  1.29619869E-02 -3.62170361E-02
  2.13961037E-02  2.74366238E-01  3.62818737E-03 -6.51504488E-02  1.55663662E-02
  2.06634551E-01  1.40996722E-02 -4.40909498E-02  3.64965940E-02  1.16123535E-03
  2.79851853E-01 -9.00820207E-02  3.64034696E-02  4.03897369E-03  1.86361541E-01
 -3.81797269E-02  9.10915680E-02  3.52599354E-01 -3.37961493E-03 -1.60293621E-02
 -3.26494333E-02  1.61015783E-01  1.55848224E-03  1.50089901E-03  2.51054840E-01
  4.79300357E-02 -7.51190789E-02  2.59849032E-01  1.89594176E-02 -8.63152898E-03
 -1.93571380E-01  1.23240463E-01  1.76956034E-02  3.20896119E-03  1.50345276E-01
  1.27905293E-01  9.33924693E-05 -4.84057874E-03 -1.22544058E-02  2.22133730E-01
 -6.51806429E-03 -1.12716463E-02 -2.52943686E-03  1.66760505E-01 -3.99238757E-03
 -1.16396920E-02 -1.38599966E-03  1.37224155E-01  8.85190356E-03 -2.30743665E-02
 -3.00577898E-02  3.67178438E-01 -1.94627106E-02 -3.18146473E-02 -8.89484097E-03
  2.75484821E-01 -1.26916056E-02 -2.88682075E-02 -4.35833920E-03  2.26608119E-01
  3.75168527E-01 -7.57993893E-03  1.12570551E-02 -2.39260508E-02 -3.73078514E-03
  2.53774271E-01  1.65950601E-03  4.81737195E-03 -8.12302434E-04  1.67034083E-01
 -2.32488642E-02 -2.91312445E-02 -2.23433664E-03 -9.96384900E-03  1.60106328E-01
  1.82234407E-02 -4.36211324E-02 -3.56118496E-02  3.24653766E-03  3.23588400E-01
 -6.46305352E-02  5.54061175E-03  5.07919850E-03  2.12814858E-01 -4.69919565E-02
 -3.24388561E-02 -1.66627661E-04 -6.09544314E-03  1.98784107E-01  2.53851675E-01
Total MP2 Density                          R   N=         120
  2.08325067E+00 -1.70762898E-01  4.89020473E-01  3.12202056E-02 -4.89967667E-02
  5.58942598E-01  1.57919923E-02 -4.20212033E-02  1.53517601E-02  4.02742411E-01
  2.62497600E-02 -6.93239190E-02  2.68089995E-02  3.98844203E-04  4.29372466E-01
 -2.89304316E-01  5.69156912E-01 -2.60835108E-01 -5.68347370E-02 -1.02769016E-01
  8.49411652E-01  1.84182886E-02 -4.43606208E-02  2.72347774E-01  1.38226415E-02
  4.16010895E-02 -1.71304018E-01  1.47059715E-01  9.44222636E-03 -2.85234629E-02
  1.73635648E-02  2.82433830E-01  3.46190015E-03 -4.93846575E-02  1.49938874E-02
  2.13118913E-01  1.39477901E-02 -4.41495142E-02  3.51858390E-02  1.63248007E-03
  2.82374646E-01 -8.52797590E-02  3.96204164E-02  4.20712490E-03  1.98567353E-01
 -3.97823906E-02  9.48572914E-02  3.28042218E-01 -4.79279342E-03 -1.79581861E-02
 -2.13614688E-02  1.62888476E-01  1.08836794E-03  2.42216350E-04  2.49322816E-01
  3.97376992E-02 -6.02444037E-02  2.31432672E-01  1.50203511E-02 -9.14168502E-03
 -1.88861285E-01  1.27769831E-01  1.57302206E-02  3.78803666E-03  1.48584146E-01
  1.36713819E-01  3.40001628E-05 -4.46019859E-03 -8.86041408E-03  1.40972290E-01
 -4.54429250E-03 -1.07651661E-02 -2.12245977E-04  1.21018565E-01 -2.40920576E-03
 -1.07227376E-02 -1.69297303E-03  1.40281597E-01  9.13470103E-03 -2.44313096E-02
 -2.53489587E-02  2.65677591E-01 -1.61047076E-02 -3.54823457E-02 -5.99017759E-03
  2.23600495E-01 -1.05272892E-02 -2.93706978E-02 -5.12202287E-03  2.32308817E-01
  3.97112545E-01 -9.03768706E-03  1.27129987E-02 -2.30292843E-02 -3.90102690E-03
  2.06961528E-01  7.47405551E-03  4.91212719E-03 -8.72078060E-04  1.50986207E-01
 -2.34250166E-02 -3.06364764E-02 -3.53463652E-03 -1.23993256E-02  1.53070154E-01
  1.66931610E-02 -4.11529594E-02 -3.43729901E-02  1.79914603E-03  2.79041383E-01
 -6.91554961E-02  7.74432149E-03  4.63139256E-03  2.06260959E-01 -5.02153083E-02
 -3.73140157E-02 -2.55614205E-03 -9.63891494E-03  2.02293977E-01  2.85872839E-01
Grdnt Energy                               R     -5.622917911030783E+01
Grdnt NVar                                 I               12
Grdnt IGetFC                               I                4
Internal Forces                            R   N=          12
 -3.64315773E-02  4.94913315E-02  8.85969068E-02  4.18126323E-02  1.58720639E-03
 -9.26343216E-03  7.94872887E-04 -5.37672561E-02  2.01643953E-03 -6.17592780E-03
  2.68871815E-03 -8.13499141E-02
Internal Force Constants                   R   N=          78
  5.56700706E-01  1.53338609E-03 -1.37168159E-02 -6.52508673E-03 -2.96324130E-03
 -1.91861500E-02 -4.98889368E-01  6.35982248E-03  1.95423325E-02  5.07516833E-01
 -8.65728547E-03  1.23686172E-03  1.63473057E-03 -2.45594864E-03  1.14642320E-03
 -1.36949978E-02  1.69946528E-03 -1.46453172E-03 -1.53694608E-02 -7.96244379E-04
  2.20561055E-02 -1.74242231E-02 -9.02531454E-03  8.18129310E-04 -1.64847138E-03
  1.16424420E-02 -3.98642007E-04  2.00493849E-02  5.38183212E-03  5.02924337E-02
  5.91320413E-03 -3.19124788E-03 -4.65604793E-03 -1.05300538E-04 -2.12043726E-03
 -4.42711703E-02  1.30680695E-03 -4.91773773E-03 -1.65347220E-02 -5.35428018E-04
 -7.46041201E-04 -1.01652022E-03 -3.72577478E-04 -4.89440494E-04  1.88432047E-02
 -4.03871149E-02  1.13210598E-03 -1.38353751E-02 -6.97899329E-03 -5.29207889E-04
  2.94631006E-02 -9.76690426E-04 -7.01469761E-05 -3.98801455E-04  4.83427986E-02
  1.74206727E-03 -3.78124796E-02 -4.58469340E-03 -7.12625953E-04  2.27276301E-03
 -7.97920362E-04 -4.96690202E-04 -1.36521553E-03  6.15321943E-03 -5.32751112E-04
  3.69049321E-02  1.89132775E-02  6.18151375E-03  3.71854037E-02 -3.63744368E-03
 -9.24449906E-05 -1.95750536E-02 -4.69098253E-05 -5.31846310E-03 -1.29196252E-03
 -1.52289240E-02 -7.70605660E-04 -1.63183876E-02
Mulliken Charges                           R   N=           4
 -4.42544030E-01  2.82170133E-01  2.62965802E-02  1.34077317E-01
ONIOM Charges                              I   N=          16
           0           0           0           0           0           0
           0           0           0           0           0           0
           0           0           0           0
ONIOM Multiplicities                       I   N=          16
           1           0           0           0           0           0
           0           0           0           0           0           0
           0           0           0           0
Atom Layers                                I   N=           4
           1           1           1           1
Atom Modifiers                             I   N=           4
           0           0           0           0
Force Field                                I                0
Atom Modified Types                        C   N=           4
                                                
Int Atom Modified Types                    I   N=           4
           0           0           0           0
Link Atoms                                 I   N=           4
           0           0           0           0
Atom Modified MM Charges                   R   N=           4
  0.00000000E+00  0.00000000E+00  0.00000000E+00  0.00000000E+00
Link Distances                             R   N=          16
  0.00000000E+00  0.00000000E+00  0.00000000E+00  0.00000000E+00  0.00000000E+00
  0.00000000E+00  0.00000000E+00  0.00000000E+00  0.00000000E+00  0.00000000E+00
  0.00000000E+00  0.00000000E+00  0.00000000E+00  0.00000000E+00  0.00000000E+00
  0.00000000E+00
Cartesian Gradient                         R   N=          12
  3.64315773E-02 -4.94913315E-02 -8.85969068E-02 -4.18126323E-02 -1.58720639E-03
  9.26343216E-03 -7.94872887E-04  5.37672561E-02 -2.01643953E-03  6.17592780E-03
 -2.68871815E-03  8.13499141E-02
Cartesian Force Constants                  R   N=          78
  5.56700706E-01  1.53338609E-03 -1.37168159E-02 -6.52508673E-03 -2.96324130E-03
 -1.91861500E-02 -4.98889368E-01  6.35982248E-03  1.95423325E-02  5.07516833E-01
 -8.65728547E-03  1.23686172E-03  1.63473057E-03 -2.45594864E-03  1.14642320E-03
 -1.36949978E-02  1.69946528E-03 -1.46453172E-03 -1.53694608E-02 -7.96244379E-04
  2.20561055E-02 -1.74242231E-02 -9.02531454E-03  8.18129310E-04 -1.64847138E-03
  1.16424420E-02 -3.98642007E-04  2.00493849E-02  5.38183212E-03  5.02924337E-02
  5.91320413E-03 -3.19124788E-03 -4.65604793E-03 -1.05300538E-04 -2.12043726E-03
 -4.42711703E-02  1.30680695E-03 -4.91773773E-03 -1.65347220E-02 -5.35428018E-04
 -7.46041201E-04 -1.01652022E-03 -3.72577478E-04 -4.89440494E-04  1.88432047E-02
 -4.03871149E-02  1.13210598E-03 -1.38353751E-02 -6.97899329E-03 -5.29207889E-04
  2.94631006E-02 -9.76690426E-04 -7.01469761E-05 -3.98801455E-04  4.83427986E-02
  1.74206727E-03 -3.78124796E-02 -4.58469340E-03 -7.12625953E-04  2.27276301E-03
 -7.97920362E-04 -4.96690202E-04 -1.36521553E-03  6.15321943E-03 -5.32751112E-04
  3.69049321E-02  1.89132775E-02  6.18151375E-03  3.71854037E-02 -3.63744368E-03
 -9.24449906E-05 -1.95750536E-02 -4.69098253E-05 -5.31846310E-03 -1.29196252E-03
 -1.52289240E-02 -7.70605660E-04 -1.63183876E-02
Dipole Moment                              R   N=           3
  7.10365303E-01  1.83203099E-01  4.17276324E-01
Dipole Derivatives                         R   N=          36
  4.18003636E-02  6.58543838E-02  1.57664058E-01  7.43898406E-03 -1.05887936E-01
  4.81662603E-03  2.83624324E-02 -3.77931381E-02  1.29428926E-01 -2.08142888E-01
 -2.92157134E-03 -9.95336806E-03 -3.28478461E-03  1.84309525E-01  2.20524038E-02
 -4.15465763E-02  4.93046843E-02  1.37799950E-01  4.68424299E-02 -9.58044863E-02
  1.10304374E-02 -6.58556173E-03 -1.76585616E-01 -2.25289463E-02  1.82384911E-03
 -3.67642726E-02  4.52152768E-02  1.19500094E-01  3.28716738E-02 -1.58741128E-01
  2.43136228E-03  9.81640272E-02 -4.34008349E-03  1.13602948E-02  2.52527264E-02
 -3.12444152E-01
Polarizability                             R   N=           6
  8.67953148E+00 -1.11535189E+00  2.82495172E+01 -6.10857224E-01 -4.03023856E+00
  1.91877024E+01
QEq coupling tensors                       R   N=          24
  6.79191952E-01  1.23217660E-01 -4.52112757E-01  2.16809780E-01  5.79559134E-03
 -2.27079195E-01 -4.78181320E-01  9.33126590E-03  2.39539761E-01  2.37216610E-02
  3.96455004E-04  2.38641560E-01 -7.87437533E-03  7.94111723E-03  1.51050783E-02
  4.18816893E-04  3.35846681E-03 -7.23070298E-03  1.13238579E-02  9.38632075E-04
  1.58171887E-02  1.95096227E-02  2.41753273E-03 -2.71410466E-02
