NH3 HF Frequency                                                        
Freq      RHF                                                         6-31G               
Number of atoms                            I                4
Info1-9                                    I   N=           9
          11          11           0           0           0         100
           6           1           2
Full Title                                 C   N=           2
NH3 HF Frequency        
Route                                      C   N=           4
#p RHF/6-31G nosymm SCF(VeryTight) Freq         
Charge                                     I                0
Multiplicity                               I                1
Number of electrons                        I               10
Number of alpha electrons                  I                5
Number of beta electrons                   I                5
Number of basis functions                  I               15
Number of independent functions            I               15
Number of point charges in /Mol/           I                0
Number of translation vectors              I                0
Atomic numbers                             I   N=           4
           7           1           1           1
Nuclear charges                            R   N=           4
  7.00000000E+00  1.00000000E+00  1.00000000E+00  1.00000000E+00
Current cartesian coordinates              R   N=          12
  0.00000000E+00  0.00000000E+00  0.00000000E+00  1.88972612E+00  0.00000000E+00
  0.00000000E+00  0.00000000E+00  3.77945225E+00  0.00000000E+00  0.00000000E+00
  0.00000000E+00  2.83458919E+00
Number of symbols in /Mol/                 I                0
Force Field                                I                0
Atom Types                                 C   N=           4
                                                
Int Atom Types                             I   N=           4
           0           0           0           0
MM charges                                 R   N=           4
  0.00000000E+00  0.00000000E+00  0.00000000E+00  0.00000000E+00
Integer atomic weights                     I   N=           4
          14           1           1           1
Real atomic weights                        R   N=           4
  1.40030740E+01  1.00782504E+00  1.00782504E+00  1.00782504E+00
Atom fragment info                         I   N=           4
           0           0           0           0
Atom residue num                           I   N=           4
           0           0           0           0
Nuclear spins                              I   N=           4
           2           1           1           1
Nuclear ZEff                               R   N=           4
 -4.55000000E+00 -1.00000000E+00 -1.00000000E+00 -1.00000000E+00
Nuclear ZNuc                               R   N=           4
  7.00000000E+00  1.00000000E+00  1.00000000E+00  1.00000000E+00
Nuclear QMom                               R   N=           4
  2.04400000E+00  0.00000000E+00  0.00000000E+00  0.00000000E+00
Nuclear GFac                               R   N=           4
  4.03761000E-01  2.79284600E+00  2.79284600E+00  2.79284600E+00
MicOpt                                     I   N=           4
          -1          -1          -1          -1
Number of residues                         I                0
Number of secondary structures             I                0
Number of contracted shells                I                9
Number of primitive shells                 I               22
Pure/Cartesian d shells                    I                1
Pure/Cartesian f shells                    I                0
Highest angular momentum                   I                1
Largest degree of contraction              I                6
Shell types                                I   N=           9
           0          -1          -1           0           0           0
           0           0           0
Number of primitives per shell             I   N=           9
           6           3           1           3           1           3
           1           3           1
Shell to atom map                          I   N=           9
           1           1           1           2           2           3
           3           4           4
Primitive exponents                        R   N=          22
  4.17351146E+03  6.27457911E+02  1.42902093E+02  4.02343293E+01  1.28202129E+01
  4.39043701E+00  1.16263619E+01  2.71627981E+00  7.72218397E-01  2.12031498E-01
  1.87311370E+01  2.82539436E+00  6.40121692E-01  1.61277759E-01  1.87311370E+01
  2.82539436E+00  6.40121692E-01  1.61277759E-01  1.87311370E+01  2.82539436E+00
  6.40121692E-01  1.61277759E-01
Contraction coefficients                   R   N=          22
  1.83477216E-03  1.39946270E-02  6.85865518E-02  2.32240873E-01  4.69069948E-01
  3.60455199E-01 -1.14961182E-01 -1.69117479E-01  1.14585195E+00  1.00000000E+00
  3.34946043E-02  2.34726953E-01  8.13757326E-01  1.00000000E+00  3.34946043E-02
  2.34726953E-01  8.13757326E-01  1.00000000E+00  3.34946043E-02  2.34726953E-01
  8.13757326E-01  1.00000000E+00
P(S=P) Contraction coefficients            R   N=          22
  0.00000000E+00  0.00000000E+00  0.00000000E+00  0.00000000E+00  0.00000000E+00
  0.00000000E+00  6.75797439E-02  3.23907296E-01  7.40895140E-01  1.00000000E+00
  0.00000000E+00  0.00000000E+00  0.00000000E+00  0.00000000E+00  0.00000000E+00
  0.00000000E+00  0.00000000E+00  0.00000000E+00  0.00000000E+00  0.00000000E+00
  0.00000000E+00  0.00000000E+00
Coordinates of each shell                  R   N=          27
  0.00000000E+00  0.00000000E+00  0.00000000E+00  0.00000000E+00  0.00000000E+00
  0.00000000E+00  0.00000000E+00  0.00000000E+00  0.00000000E+00  1.88972612E+00
  0.00000000E+00  0.00000000E+00  1.88972612E+00  0.00000000E+00  0.00000000E+00
  0.00000000E+00  3.77945225E+00  0.00000000E+00  0.00000000E+00  3.77945225E+00
  0.00000000E+00  0.00000000E+00  0.00000000E+00  2.83458919E+00  0.00000000E+00
  0.00000000E+00  2.83458919E+00
Num ILSW                                   I              100
ILSW                                       I   N=         100
           0           1           0           0           2           0
           0           0           0           0           0          -1
           5           0           0           0           2           0
           0           0           0           0           1           0
           1           1           0           0           0           0
           0           0      100000           0          -1           0
           0           0           0           0           0           0
           0           0           0           1           0           0
           0 -2000000000           1           0           0           0
           0           0           4          52           0           0
           0           0           0           0           0           0
           0           0           0           4           0           1
           0           0           0           0           0           0
           0           0           0           0           0           0
           0           0           0           0           0           0
           0           0           0           0           0           0
           0           0           0           0
Num RLSW                                   I               52
RLSW                                       R   N=          52
  1.00000000E+00  1.00000000E+00  1.00000000E+00  1.00000000E+00  1.00000000E+00
  0.00000000E+00  0.00000000E+00  1.00000000E+00  0.00000000E+00  0.00000000E+00
  0.00000000E+00  0.00000000E+00  1.00000000E+00  0.00000000E+00  0.00000000E+00
  0.00000000E+00  0.00000000E+00  1.00000000E+00  0.00000000E+00  0.00000000E+00
  0.00000000E+00  0.00000000E+00  1.00000000E+00  0.00000000E+00  0.00000000E+00
  0.00000000E+00  0.00000000E+00  1.00000000E+00  0.00000000E+00  0.00000000E+00
  0.00000000E+00  0.00000000E+00  1.00000000E+00  0.00000000E+00  0.00000000E+00
  0.00000000E+00  0.00000000E+00  0.00000000E+00  1.00000000E+00  1.00000000E+00
  0.00000000E+00  1.00000000E+00  0.00000000E+00  0.00000000E+00  0.00000000E+00
  0.00000000E+00  0.00000000E+00  0.00000000E+00  0.00000000E+00  0.00000000E+00
  0.00000000E+00  0.00000000E+00
MxBond                                     I                1
NBond                                      I   N=           4
           1           1           0           0
IBond                                      I   N=           4
           2           1           0           0
RBond                                      R   N=           4
  1.00000000E+00  1.00000000E+00  0.00000000E+00  0.00000000E+00
Virial Ratio                               R      2.011628303468314E+00
SCF Energy                                 R     -5.588912798687205E+01
Total Energy                               R     -5.588912798687205E+01
RMS Force                                  R      5.993327032344537E-02
RMS Density                                R      2.471500161852533E-09
NImag                                      I                2
Job Status                                 I                1
Nuclear derivative order                   I                2
External E-field                           R   N=          35
  0.00000000E+00  0.00000000E+00  0.00000000E+00  0.00000000E+00  0.00000000E+00
  0.00000000E+00  0.00000000E+00  0.00000000E+00  0.00000000E+00  0.00000000E+00
  0.00000000E+00  0.00000000E+00  0.00000000E+00  0.00000000E+00  0.00000000E+00
  0.00000000E+00  0.00000000E+00  0.00000000E+00  0.00000000E+00  0.00000000E+00
  0.00000000E+00  0.00000000E+00  0.00000000E+00  0.00000000E+00  0.00000000E+00
  0.00000000E+00  0.00000000E+00  0.00000000E+00  0.00000000E+00  0.00000000E+00
  0.00000000E+00  0.00000000E+00  0.00000000E+00  0.00000000E+00  0.00000000E+00
IOpCl                                      I                0
IROHF                                      I                0
Alpha Orbital Energies                     R   N=          15
 -1.56894576E+01 -1.10074296E+00 -5.72490122E-01 -4.69739344E-01 -3.88040048E-01
  2.40187428E-02  1.14210958E-01  2.62652240E-01  8.92957589E-01  9.65244418E-01
  9.91295275E-01  1.02828571E+00  1.06191933E+00  1.18757666E+00  1.37920037E+00
Alpha MO coefficients                      R   N=         225
  9.96322200E-01  2.09308586E-02  1.99864856E-03  7.96880822E-04  1.27977358E-03
 -8.16312517E-03 -2.33197313E-03 -5.45259516E-04 -1.12048464E-03 -2.28480202E-05
  3.12653083E-03  9.14273305E-05  5.82438013E-04  4.65834304E-04  8.98150942E-04
 -2.01289602E-01  4.44024904E-01  1.39659956E-01 -3.98207950E-03  2.03988026E-02
  4.66288136E-01  6.36022889E-02  5.61158771E-03  2.85978591E-02  2.04870951E-01
  1.05236091E-02  2.17417947E-02  1.60421301E-02  5.75193468E-02  2.06891634E-02
  6.96334244E-02 -1.39910599E-01  4.96327680E-01  1.40540903E-02 -7.90489653E-02
 -3.24645286E-01  2.56911326E-01  8.47104861E-03 -5.31863195E-02  2.83256421E-01
  2.02397741E-01 -2.65535772E-02 -5.17693093E-02 -1.01799241E-01 -1.31700977E-01
  5.46120049E-02 -1.47328955E-01  1.29068552E-01  6.19992180E-03  4.34920297E-01
 -2.00042347E-01  1.03562107E-01  5.89847069E-03  3.38240270E-01  1.91194868E-02
  1.61724991E-02 -1.52879265E-02 -4.06606482E-02  2.32439517E-01  3.21346725E-01
  2.42739771E-02 -7.70351205E-02  2.41204280E-02  3.85421338E-01  2.74835908E-03
 -8.03370689E-02  2.17255618E-02  3.55082413E-01  2.38502490E-03 -1.52750278E-02
  1.61881678E-02  2.27468522E-01  4.53537063E-01 -6.41971621E-03  3.26776346E-03
  3.68745919E-02 -7.06010694E-02  1.59518463E-02 -4.29116832E-01 -2.54899974E-02
 -2.50759430E-01 -1.62262030E-02 -5.03748207E-01 -4.59705957E-02 -3.69058011E-03
  1.31819597E-01  2.20711160E-01  6.78005421E-01  1.85382943E-03  8.16466102E-02
  5.31136133E-02 -7.90486179E-02 -9.06639249E-03  4.94854384E-02 -4.02386393E-01
 -5.37348164E-01 -7.36168723E-02  5.00240291E-02 -6.01280097E-01 -4.47948126E-03
  2.66909942E-01 -5.03728386E-02 -1.08816955E-01  1.95103292E-01  9.79605558E-01
  5.48686039E-02 -5.12697698E-02 -3.17307794E-01  3.85321495E-02  1.00360252E-01
 -1.07849214E+00 -8.37798866E-01  3.35301230E-02  1.45172955E-01  6.24197819E-02
  1.91723063E+00 -4.54598803E-02 -1.06081829E-01 -7.02099980E-02 -2.76226166E-01
  2.27309119E-02  6.03936860E-02  4.58672415E-01  1.92080187E-01  4.00024639E-01
 -5.53527324E-01 -7.64919951E-01 -2.43802421E-01 -5.18812197E-01  3.37919679E-01
  3.72833316E-02 -3.50548041E-01  3.50121446E-01 -7.91849178E-01  1.00323088E+00
 -3.55356628E-02  1.06012476E-01 -3.17905743E-01  4.71332180E-01  4.52853402E-01
  2.14733119E-01  1.01710492E+00 -5.41018525E-01 -5.35725829E-01 -7.52309383E-01
 -1.84744808E-01 -2.91487316E-01  3.76203664E-01 -1.10297624E-01  2.65773896E-01
 -3.20844296E-02  4.97373588E-01 -3.73322846E-01 -7.06605896E-01  2.04924817E-01
 -5.45710046E-01  5.05197538E-01  7.94089993E-01 -3.47694888E-01 -3.11498037E-02
 -1.72352161E-01  1.51752040E-01 -3.42419757E-01 -5.99170737E-01  8.72232753E-01
 -2.48927935E-02  5.46861232E-01 -2.96378648E-01  3.45752965E-01 -6.93823399E-01
 -6.48869798E-01  2.19681769E-01 -4.47260600E-01  8.00038127E-01  2.13512086E-01
 -1.41280454E-01 -3.32276075E-01  5.10353225E-01 -4.93576776E-01  2.50663445E-01
 -3.01744841E-03 -2.11766958E-02 -1.18417354E-01  3.99213311E-01  6.33844083E-02
  5.69689650E-02  6.30245674E-02 -2.76329528E-01 -1.34204232E-01  1.51812696E-01
 -1.36296870E-01  1.15710798E+00 -9.60365775E-01 -3.46132894E-01  4.60646879E-01
 -4.23365065E-02  4.10719707E-01  7.15139285E-01 -1.08105942E-01 -2.92653248E-01
 -6.39747046E-01 -5.70766551E-01  1.80025812E-01  4.21168901E-01 -1.06195741E+00
  1.32600369E+00  2.37622107E-01 -3.47813729E-01 -2.02925933E-01 -1.09150414E-01
  2.84242377E-02 -1.55930729E+00 -1.63074060E-01 -1.39290106E-01 -2.97367294E-01
  2.45525120E+00  8.68346138E-01  2.11012052E-01  5.13659964E-01 -3.48612664E-01
 -9.78397564E-01 -2.85265609E-02 -2.41014814E-01 -5.99459729E-01 -8.51491894E-03
Orthonormal basis                          R   N=         225
  5.37439999E-02  1.90100143E-01  8.10032016E-02  1.01903533E-02  3.40471374E-02
  2.49247336E-01  1.28458192E-01  2.51170309E-02  7.19059329E-02  2.02285617E-01
  2.61884432E-01  5.13452802E-02  1.05720509E-01  1.14460179E-01  1.90005263E-01
 -4.83620478E-03 -1.21650592E-02 -1.96777229E-01  1.68151877E-02  2.08186000E-01
  1.36926281E-02 -2.50093382E-01  2.84612292E-02  3.22842900E-01 -2.08521999E-01
 -1.25633733E-01  3.24087486E-02  4.35850093E-02  2.76106684E-01  2.80226644E-01
  8.50605173E-03  1.85504557E-02 -9.39369907E-02  2.32160802E-01 -9.18989876E-02
  3.81457444E-02 -1.11921428E-01  3.53505789E-01 -1.30591019E-01 -8.02325756E-02
 -2.64662685E-02  3.35973074E-01  3.84588763E-01 -9.57117880E-02 -7.38080113E-02
  1.74591783E-01  3.25553694E-01 -3.07199953E-01 -1.51941754E-01 -2.01443050E-01
  2.85987391E-01 -3.24851421E-01 -1.81175113E-01 -2.33440622E-01 -1.10925436E-01
  1.02244559E-02 -8.43411891E-02 -6.26463630E-02 -8.70568314E-02 -2.90325967E-02
  1.27097622E-01  1.31227537E-01 -3.10008720E-02  5.77336777E-01 -7.79892473E-04
  4.96767462E-02 -2.83642136E-02  3.53031679E-01 -1.53268129E-04  2.61484810E-02
 -1.08516558E-02 -4.55181180E-01 -2.99847440E-01  7.83026131E-03 -5.20682736E-03
  4.82188397E-01  1.80555985E-01  3.16759892E-02 -5.47904700E-02  6.13094632E-01
  2.11356153E-03  7.42219942E-03 -1.27942107E-02  2.15861585E-01  2.76475687E-02
 -5.87508288E-02  8.31209139E-02  2.92846515E-02 -4.23425917E-01 -2.57392534E-01
  8.17105098E-01 -1.31998273E-01  2.75729676E-01 -4.32976359E-02 -3.60701970E-01
 -1.57867807E-01  9.95289077E-02  2.11718784E-03 -3.49941053E-02 -1.42869033E-01
 -1.34645397E-01  8.43935664E-02  1.50504205E-02  3.15512120E-01  1.19551370E-01
 -2.83842287E-01  5.02358953E-01  9.24512924E-01 -1.24975483E-02  7.98606079E-03
  1.77601832E-01 -2.65691044E-01  7.84553975E-03 -3.53329877E-03 -3.47078422E-01
 -3.62770543E-01  1.68367235E-02  1.20428078E-03  3.48142457E-03 -8.07180458E-03
 -9.16447444E-03  2.81891774E-02 -1.01412963E-02  9.14457158E-01 -1.37566384E-02
  1.80899665E-02  1.31660776E-02 -9.11211914E-01  1.54933673E-02 -5.60180243E-03
  2.46616577E-03  6.41509499E-01 -2.74780527E-01  1.08314267E-02 -1.03329555E-02
 -4.08147138E-02  2.66206023E-01 -8.36024756E-02 -7.18456255E-02 -8.02226417E-01
 -1.71550991E-01 -9.94176342E-02  1.01921127E-01  9.77391903E-01  4.79335813E-01
 -3.06368724E-01  1.59385837E-01 -1.34535329E-01 -5.83829483E-01  1.32785688E-01
 -1.20510786E-01  7.61609121E-01 -3.74829080E-01 -2.01863782E-01  6.18552401E-02
 -2.38587781E-01  5.02985997E-01  3.11620745E-01 -2.09239127E-02  1.28772583E-01
 -3.58520935E-01  4.73719852E-01 -4.53163342E-01  7.45022231E-01 -5.96338062E-01
  8.53203447E-02 -3.39601968E-01  2.17565743E-01 -3.58411100E-02  2.12993741E-01
  9.68769588E-02 -8.69346486E-01  6.07611295E-02 -2.76180958E-01  1.15508700E+00
 -3.80750109E-01  1.36777425E-01 -1.15483822E-01  3.64764390E-01 -1.53604953E-01
 -1.32592981E-02  2.96811927E-01 -1.14423781E-01  3.17086950E-01 -1.39039975E-01
 -1.72747009E-01  1.32971752E-01 -6.79285995E-01  3.42382226E-01  2.57138046E-01
 -3.46839430E-01 -8.91780553E-01  1.31926154E+00  4.71085286E-01 -7.12140881E-01
 -1.29255687E-02  6.05011165E-01 -2.84374794E-01  7.08673651E-02  3.43504847E-01
 -6.65225606E-01  5.66894966E-01 -1.69789489E-01 -9.23326698E-01  4.71096260E-01
 -1.10091136E+00 -1.52836895E-01  3.36462523E-01 -4.61601933E-01  1.46347235E+00
 -2.40218210E-02 -1.31801998E+00 -3.23614328E-01 -2.25131131E-02 -7.19792820E-02
  2.93654806E+00  1.46948114E+00  6.18112456E-02  2.19912518E-01 -1.07997304E-01
 -2.16498438E+00  7.83594753E-03 -1.20018131E-01 -1.54346675E-01 -2.02856957E-01
Total SCF Density                          R   N=         120
  2.08319188E+00 -1.76364099E-01  4.89622846E-01  3.21487762E-02 -5.65216524E-02
  5.66181100E-01  2.45368691E-02 -6.86443730E-02  3.30352645E-02  2.97604113E-01
  3.09662656E-02 -8.82878433E-02  3.96361773E-02  5.12915387E-03  3.91659412E-01
 -2.74946066E-01  5.75909612E-01 -2.47563834E-01 -7.72595263E-02 -1.04118251E-01
  7.38713620E-01  1.78936789E-02 -4.93675117E-02  3.00561751E-01  2.47421988E-02
  5.21736467E-02 -1.52382394E-01  1.62502458E-01  1.57168987E-02 -5.38554991E-02
  2.86261741E-02  2.73978363E-01  5.97080566E-03 -5.96704848E-02  2.17194253E-02
  2.52443716E-01  1.59070247E-02 -5.98005545E-02  4.26152068E-02  4.30809105E-03
  3.03800730E-01 -7.44866128E-02  4.64760504E-02  5.10505433E-03  2.36120092E-01
 -4.17273476E-02  9.93932202E-02  3.42599017E-01 -5.20740325E-03 -1.98771251E-02
  1.94732499E-03  1.74900586E-01 -3.52395064E-03 -5.55184250E-03  2.45610377E-01
  3.27331012E-02 -5.44182773E-02  2.08818807E-01  1.82892706E-02 -1.74048455E-02
 -1.30723311E-01  1.09373724E-01  1.52307944E-02 -9.91708364E-03  1.19096610E-01
  8.32179472E-02 -2.89532255E-03 -3.79954379E-03 -1.32583739E-02  1.74233494E-01
 -6.96241590E-03  7.08353331E-03 -4.16133693E-03  1.61153831E-01 -5.18904180E-03
 -1.36681929E-02 -3.42048282E-03  1.06306911E-01  5.06979278E-03 -2.91388404E-02
 -3.55228736E-02  3.47519563E-01 -2.40347250E-02 -8.03964820E-03 -1.32774377E-02
  3.20908726E-01 -1.89196689E-02 -3.81652762E-02 -7.24599869E-03  2.11021041E-01
  4.20573813E-01 -1.13287982E-02  1.20840762E-02 -2.52918296E-02 -5.38511981E-03
  2.20592133E-01  2.77668491E-02  2.87270394E-03 -2.89663220E-03  1.71327658E-01
 -2.50181405E-02 -3.26839286E-02 -2.12010237E-03 -1.23392803E-02  1.35482239E-01
  1.03765096E-02 -3.99274885E-02 -4.18420421E-02  2.63836547E-03  3.01206407E-01
 -2.42991897E-02  1.65729780E-03  4.11148706E-03  2.32591093E-01 -5.39449798E-02
 -4.23711373E-02 -4.44756151E-04 -8.86724870E-03  1.78540409E-01  2.42096783E-01
Grdnt Energy                               R     -5.588912798687205E+01
Grdnt NVar                                 I                0
Grdnt IGetFC                               I                4
Mulliken Charges                           R   N=           4
 -5.09604801E-01  3.24483823E-01  1.25866876E-02  1.72534290E-01
ONIOM Charges                              I   N=          16
           0           0           0           0           0           0
           0           0           0           0           0           0
           0           0           0           0
ONIOM Multiplicities                       I   N=          16
           1           0           0           0           0           0
           0           0           0           0           0           0
           0           0           0           0
Atom Layers                                I   N=           4
           1           1           1           1
Atom Modifiers                             I   N=           4
           0           0           0           0
Force Field                                I                0
Atom Modified Types                        C   N=           4
                                                
Int Atom Modified Types                    I   N=           4
           0           0           0           0
Link Atoms                                 I   N=           4
           0           0           0           0
Atom Modified MM Charges                   R   N=           4
  0.00000000E+00  0.00000000E+00  0.00000000E+00  0.00000000E+00
Link Distances                             R   N=          16
  0.00000000E+00  0.00000000E+00  0.00000000E+00  0.00000000E+00  0.00000000E+00
  0.00000000E+00  0.00000000E+00  0.00000000E+00  0.00000000E+00  0.00000000E+00
  0.00000000E+00  0.00000000E+00  0.00000000E+00  0.00000000E+00  0.00000000E+00
  0.00000000E+00
Cartesian Gradient                         R   N=          12
  8.86660675E-03 -8.87416949E-02 -1.22893498E-01 -1.92478138E-02  8.97541638E-04
  1.48986549E-02  4.48770808E-04  8.77726063E-02  5.36608981E-05  9.93243626E-03
  7.15469655E-05  1.07941182E-01
Cartesian Force Constants                  R   N=          78
  6.03054058E-01  7.30353289E-03  2.78161808E-02 -1.61406440E-03  3.71586244E-03
  1.87334808E-02 -5.18389842E-01  2.60248695E-03  1.53651133E-02  5.24354621E-01
 -1.36207991E-02 -1.59409755E-02  1.93459330E-03 -1.68168704E-03  2.09773700E-02
 -1.65282250E-02  6.15705302E-04 -1.73855149E-02 -1.59261504E-02 -4.18424930E-04
  3.88098793E-02 -3.02904407E-02 -1.03164907E-02  9.67298345E-04 -6.03364652E-04
  1.55814370E-02 -2.09213418E-04  3.10143500E-02  3.50225687E-03  3.72526149E-02
  1.74504471E-04 -1.56283050E-04 -7.93876806E-03  1.11322436E-03 -4.08812351E-03
 -2.67963203E-02  2.11125763E-03 -4.32964618E-03 -2.78487614E-02 -5.73388111E-04
 -1.76523402E-03 -7.45399254E-04 -8.82617177E-04 -1.90234297E-03  2.92215487E-02
 -5.43737759E-02  4.10470883E-04 -1.47183472E-02 -5.36141441E-03 -2.78950785E-04
  3.26635889E-02 -1.20544701E-04  7.42149696E-04 -6.55252337E-04  5.98557350E-02
  2.81500938E-03 -4.91278203E-02 -5.82496021E-03 -7.64516863E-04  2.90237350E-03
 -1.31050473E-03 -1.17682272E-03 -2.51752651E-03  7.99722317E-03 -8.73669795E-04
  4.87429733E-02  1.60310318E-02 -1.92156816E-06  2.65007955E-02  1.13442527E-03
  2.49065655E-04 -2.06789652E-02  1.24532250E-04  6.14614133E-04 -6.27388102E-04
 -1.72899893E-02 -8.61758220E-04 -5.19444221E-03
Nonadiabatic coupling                      R   N=          12
  0.00000000E+00  0.00000000E+00  0.00000000E+00  0.00000000E+00  0.00000000E+00
  0.00000000E+00  0.00000000E+00  0.00000000E+00  0.00000000E+00  0.00000000E+00
  0.00000000E+00  0.00000000E+00
Dipole Moment                              R   N=           3
  8.02553715E-01  1.34086110E-01  5.48070263E-01
Dipole Derivatives                         R   N=          36
 -1.60607893E-01  7.86009451E-02  1.34514644E-01 -4.00236132E-02  1.45143346E-01
 -1.37908283E-01 -1.55430242E-02 -1.61254593E-01  1.18105188E-01 -6.15682243E-02
  9.91639350E-03  3.00442269E-02  1.80028114E-02  9.89661810E-02  5.10384146E-02
 -2.34807484E-02  1.11519156E-01  1.39576006E-01  4.44790766E-02 -1.62863477E-01
  2.55192155E-02  1.89586987E-02 -3.42812687E-01  6.66979359E-02  2.29657081E-03
 -7.09857825E-02  5.06066001E-02  1.77697041E-01  7.43461381E-02 -1.90078086E-01
  3.06210316E-03  9.87031600E-02  2.01719327E-02  3.67272018E-02  1.20721220E-01
 -3.08287794E-01
Polarizability                             R   N=           6
  7.60913550E+00 -1.73844352E+00  4.44884412E+01 -8.34501076E-01 -8.70576371E+00
  2.26862762E+01
Polarizability Derivatives                 R   N=          72
 -9.29454285E+00 -3.29229977E+00 -3.06347197E+00 -2.31107061E+00 -3.99146809E-01
 -2.31609814E+00  1.41456749E-01 -5.99422081E-01 -2.29094407E+01 -4.26281660E-01
  4.84991474E-01 -8.28807450E-01 -2.92234698E-01 -6.43081352E-01 -4.94343433E+00
 -6.93155795E-01  1.20656929E+00 -1.86781750E+01  1.04979573E+01 -4.42458256E+00
  2.67305783E+00 -1.96065955E+00  4.40509446E-01  1.08376951E+00  1.76282382E-02
  1.65424910E+00 -6.35550181E-01  2.01339493E-01 -1.68566189E-01 -4.21008649E-01
  4.44772314E-01  3.04762672E-01 -3.17631399E-01  1.73328017E+00 -1.18676363E+00
  1.28105192E+00 -9.11130576E-01  1.05849686E+01  6.02168856E-01 -2.20277609E+00
  1.36516550E-01 -2.10504633E-01 -1.64235076E-01 -8.59318519E-01  2.73908588E+01
  1.65555639E-01 -4.69124660E+00  3.38242101E-01  3.86258879E-03  7.41680502E-02
  1.72249073E+00 -4.15432453E-01  9.04972021E+00 -3.92321116E+00 -2.92283842E-01
 -2.86808623E+00 -2.11754715E-01  6.47450625E+00 -1.77879186E-01  1.44283326E+00
  5.15008903E-03 -1.95508501E-01 -3.84586794E+00  5.93865291E-02  4.37482132E+00
  9.11573998E-01 -1.56400204E-01  2.64150630E-01  3.53857500E+00 -6.24691918E-01
 -9.06952587E+00  2.13203343E+01
HyperPolarizability                        R   N=          10
  5.31397518E+01 -1.98259378E+01  5.90824259E+00  1.09159047E+02 -7.83138109E+00
  8.93797381E-01 -4.43061425E-01 -1.14008097E+00 -5.92591666E+01  1.39330354E+02
Quadrupole Moment                          R   N=           6
 -2.19097639E-01 -8.40997067E-02  3.03197346E-01 -8.40450931E-02 -7.85689573E-02
  8.92413823E-03
QEq coupling tensors                       R   N=          24
  1.00745973E+00  2.50219415E-01 -8.40380679E-01  3.04928880E-01  3.82436758E-02
 -1.67079048E-01 -4.86772302E-01  1.21519184E-02  2.43281827E-01  2.47815509E-02
  7.59023870E-04  2.43490475E-01 -1.19717954E-02  8.21507691E-03  2.27960868E-02
  4.07347818E-04  3.84469435E-03 -1.08242914E-02  8.88157432E-03  1.33598474E-03
  1.66710324E-02  1.96752896E-02  3.01752288E-03 -2.55526067E-02
Number of Normal Modes                     I                6
Vib-LE2Fix                                 I               14
Vib-NDFDPol                                I                0
Vib-NumROA                                 I                0
Vib-NDim                                   I                4
Vib-NDim0                                  I                4
Vib-LFlags                                 I                8
Vib-IFlags                                 I   N=          48
           0           0           1           0           0           0
           0           0           0           0           2           0
           0           0           0           0           0           0
           3           0           0           0           0           0
           0           0           4           0           0           0
           0           0           0           0           5           0
           0           0           0           0           0           0
           6           0           0           0           0           0
Vib-AtMass                                 R   N=           4
  1.40030740E+01  1.00782504E+00  1.00782504E+00  1.00782504E+00
Vib-E2                                     R   N=          84
 -8.97690409E+02 -6.24476663E+02  1.00465374E+03  1.18061940E+03  1.50874313E+03
  3.83876123E+03  1.08752206E+00  1.10204651E+00  1.04012046E+00  1.07545695E+00
  1.04095115E+00  1.07282895E+00  5.16346750E-01  2.53210989E-01  6.18538383E-01
  8.83208141E-01  1.39608276E+00  9.31457158E+00  1.24547216E+02  1.01533491E+02
  4.59447413E+00  7.03036393E+00  2.05029636E+01  2.83296714E+00  7.32940199E+02
  6.18097160E+02  7.82935736E+01  1.49924355E+02  6.05970943E+01  1.59867241E+02
  3.65225152E-01  3.09522640E-01  6.73782974E-01  6.82511133E-01  6.10568395E-01
  2.54775207E-01  5.35040175E-01  4.72725908E-01  8.05101957E-01  8.11300584E-01
  7.58202380E-01  4.06089004E-01  0.00000000E+00  0.00000000E+00  0.00000000E+00
  0.00000000E+00  0.00000000E+00  0.00000000E+00  0.00000000E+00  0.00000000E+00
  0.00000000E+00  0.00000000E+00  0.00000000E+00  0.00000000E+00  1.00000000E+02
  1.00000000E+02  1.00000000E+02  1.00000000E+02  1.00000000E+02  1.00000000E+02
  0.00000000E+00  0.00000000E+00  0.00000000E+00  0.00000000E+00  0.00000000E+00
  0.00000000E+00  0.00000000E+00  0.00000000E+00  0.00000000E+00  0.00000000E+00
  0.00000000E+00  0.00000000E+00  0.00000000E+00  0.00000000E+00  0.00000000E+00
  0.00000000E+00  0.00000000E+00  0.00000000E+00  0.00000000E+00  0.00000000E+00
  0.00000000E+00  0.00000000E+00  0.00000000E+00  0.00000000E+00
Vib-Modes                                  R   N=          72
 -2.41612224E-03 -7.81151278E-02  4.99708175E-03 -2.12834497E-03  9.74152299E-02
 -1.95132321E-02  4.87076149E-02  9.89478994E-01 -1.15146163E-03 -1.30088214E-02
 -1.53528217E-03 -4.87665101E-02 -1.02228363E-02 -3.96273168E-03 -8.44407807E-02
 -2.05455949E-03  3.03590841E-03  2.13864410E-01  1.51795421E-03  5.43078499E-02
 -1.71313243E-03  1.42576273E-01 -2.28417658E-03  9.61098501E-01 -2.79491964E-02
 -4.03574697E-02  8.67689904E-03 -2.94276675E-02  8.65441289E-01 -2.24355819E-02
  4.32720645E-01 -1.52615182E-01 -1.14063967E-01 -1.49570546E-02 -1.52085290E-01
  1.59396753E-02 -4.80591914E-03 -6.03456077E-02 -3.92386035E-02 -1.06526951E-03
  1.33281186E-01  1.79970027E-03  6.66405930E-02 -8.03048578E-02  5.89115009E-01